45
 energy: -81.646728516244 gnorm: 0.000742386791 xtb: 6.6.0 (conda-forge)
C            2.63441672853097        2.71874782843877       -0.12488000046622
C            2.60646508081660        1.25828099306664       -0.60795879432384
C            1.49931048552047        0.47394063166877        0.09926545968455
C            1.63808372320468       -1.05628107072817       -0.04120363381718
C            3.07172919517432       -1.50164851505383       -0.43204302490033
C            4.06349472958589       -0.52046029590274        0.20377295283564
O            3.92088853853135        0.73387623120032       -0.42572834878956
O            3.95279919497900       -0.47274995178370        1.58438828427260
O            3.24824624535530       -1.58301908269735       -1.81680386744031
O            1.29144225703023       -1.59490603823255        1.22297012964949
O            0.28749055240330        0.95607603817222       -0.45389891726633
C           -0.87905799992371        0.60604962983123        0.21848452081688
C           -1.96748237111098        1.59123757585382       -0.23339346059960
C           -3.32330301685923        1.22673372534850        0.39540785167165
C           -3.63489587710287       -0.24893387411014        0.07678953004250
C           -2.43565028505467       -1.13782555845201        0.47369960969230
O           -1.22917838673086       -0.71425855691919       -0.12213588438252
C           -2.64185998929046       -2.59248509556787        0.02192235001585
O           -3.75672796822636       -3.20401951682620        0.61812939718850
O           -4.78004831822114       -0.61802023676020        0.79416521553911
O           -4.31522019336312        2.09487730762720       -0.05368107991199
O           -2.12172585218528        1.54632638978872       -1.62995151287362
O            3.56219723933966        3.47367075133414       -0.84750878468283
H            2.87371786516752        2.72828548540514        0.94884294008816
H            1.65623195505354        3.17524877414347       -0.28487550977052
H            2.38262339188080        1.25800663138574       -1.68547687890181
H            1.51185622721148        0.70771854171482        1.17628215064731
H            0.94403123374441       -1.39421335665595       -0.81987275047692
H            3.24119362289714       -2.50965318626396       -0.03369256216793
H            5.10184354575699       -0.79704467929016       -0.02093951066654
H            3.04341329589344       -0.66112159810554        1.86119010922679
H            3.51600976602204       -0.71683476242663       -2.14930310181429
H            1.13354746766298       -2.54044590864697        1.13315494393652
H           -0.73997129318382        0.67816580255950        1.31637304172031
H           -1.67430809009742        2.60446723973407        0.08402585377283
H           -3.28551184690454        1.34929891244698        1.48259469699260
H           -3.79728202302335       -0.33820990916323       -1.00917108564013
H           -2.33775032644379       -1.09963135295363        1.57487431758721
H           -2.82256011395389       -2.61104911421234       -1.05491668007196
H           -1.72135144312801       -3.15364453934817        0.22705644019856
H           -3.61883042163197       -3.25823067556033        1.57147136722345
H           -4.97006004630434       -1.54871140939886        0.60080013923389
H           -4.29740876414219        2.08382136844278       -1.02011294780629
H           -1.24073926564334        1.49321030121533       -2.01926476835618
H            4.41009155077039        3.01375812568764       -0.79864819691747
