10
 energy: -10.754859976362 gnorm: 0.000442354793 xtb: 6.6.0 (conda-forge)
C            1.02418339371615       -0.27639051769277       -0.18186843691089
C           -0.20310515612514        0.21893581119527        0.58971088713567
N           -1.43244150630606        0.25715053231206       -0.18214259622203
H            1.22263600619700        0.36851112647117       -1.03694098588130
H            1.90100832990575       -0.27636131284482        0.46073059166240
H            0.86227905733774       -1.29041124770018       -0.54515897876859
H           -0.37967546156850       -0.42957534542281        1.45229412402115
H           -0.01891355070995        1.23126108966111        0.95993273097479
H           -1.65500546869607       -0.67000430003568       -0.53047076678738
H           -1.32116564375091        0.86688416405665       -0.98608656922381
