40
 energy: -66.762645986757 gnorm: 0.000387762551 xtb: 6.6.0 (conda-forge)
C           -2.72430329406488        3.35427424382819       -0.78606233216356
N           -2.15639583435499        2.57603003703472        0.29497579674295
C           -1.63430960704707        1.29770221230614       -0.14842034694480
C           -1.06471206263944        0.52497962140148        1.03775373195158
C           -0.52246566653739       -0.85683913691675        0.62467563015761
C           -1.63512325368023       -1.71421081797391        0.06581849745619
C           -1.80932598351209       -1.87715580743154       -1.30090189265694
C           -2.85713216121182       -2.64124164395563       -1.78461948596680
C           -3.74296017642044       -3.24355356307320       -0.90877007191568
C           -3.57319798823164       -3.08477962008490        0.45636768683046
C           -2.52321177409121       -2.32653443975716        0.94109852328307
O            0.48920005081057       -0.73426396071501       -0.36538720595176
C            1.72217904968316       -0.29690888694924       -0.04445694882777
C            2.58437266402712       -0.10255203138514       -1.13116598718522
C            3.87385941493530        0.33668985237119       -0.94144906277286
C            4.33397601125424        0.58722574049245        0.34763295689816
C            3.49210573116651        0.39457438905786        1.43276289693605
C            2.19570007858804       -0.04518572166525        1.24310298123313
C            5.72262803621398        1.10550953075208        0.56251128726267
F            5.76976089371758        2.45636315753011        0.55668592443125
F            6.24685884400684        0.72761035597114        1.74028069579437
F            6.58585193264744        0.70483579641248       -0.38384657387041
H           -3.07630918943311        4.30503212835424       -0.39088311054394
H           -3.57538708815439        2.81009720138931       -1.19597343854466
H           -2.01493794100499        3.55105405519637       -1.60483241366501
H           -1.41401203758319        3.10880310989582        0.74099018683157
H           -2.46596317119500        0.73726648336502       -0.58616140699722
H           -0.85509039574213        1.40522377872020       -0.92467410649725
H           -0.26010345624353        1.11137637712278        1.48789543888619
H           -1.84717945112034        0.38945403985856        1.78448246070411
H           -0.11311620595266       -1.36105684645509        1.51270756216602
H           -1.11700618721863       -1.40774580560312       -1.98126338647775
H           -2.98311934902276       -2.76337562191869       -2.85026548307801
H           -4.56238215441886       -3.83624688496452       -1.28731123143199
H           -4.25907826049116       -3.55457762879099        1.14561578145132
H           -2.39116741589898       -2.20929653305236        2.00742031222613
H            2.20996748130718       -0.30671851523207       -2.12138380898857
H            4.52931471680784        0.48418259346294       -1.78572247762324
H            3.85200079618257        0.58614509515079        2.43215727977336
H            1.57021440392201       -0.19158633374938        2.10871514108734
