 Entering Gaussian System
 *********************************************
 Gaussian 98:
 frequency output generated by the xtb code
 *********************************************
                         Standard orientation:
 --------------------------------------------------------------------
  Center     Atomic     Atomic              Coordinates (Angstroms)
  Number     Number      Type              X           Y           Z
 --------------------------------------------------------------------
    1          6             0       -2.961812   -2.239384    0.117814
    2          6             0       -2.080308   -1.161990   -0.415191
    3          8             0       -2.360609   -0.619690   -1.518491
    4          8             0       -0.896504   -0.847495    0.264505
    5          6             0       -0.097698    0.282901    0.025600
    6          6             0       -0.674294    1.499003   -0.391100
    7          6             0        0.121412    2.622899   -0.613805
    8          6             0        1.498212    2.554092   -0.414510
    9          6             0        2.084807    1.363489    0.017090
   10          6             0        1.300802    0.216694    0.248495
   11          6             0        1.966797   -1.029809    0.708695
   12          8             0        1.305692   -2.084905    0.904399
   13          8             0        3.341998   -1.045916    0.929590
   14          1             0       -4.022611   -2.022779   -0.129082
   15          1             0       -2.856408   -2.302183    1.221114
   16          1             0       -2.671118   -3.211287   -0.332085
   17          1             0       -1.744494    1.590908   -0.516097
   18          1             0       -0.332485    3.552300   -0.933105
   19          1             0        2.112916    3.428188   -0.586713
   20          1             0        3.156408    1.343384    0.169987
   21          1             0        3.809395   -1.888318    1.242890
 --------------------------------------------------------------------
     1 basis functions        1 primitive gaussians
     1 alpha electrons        1 beta electrons

 Harmonic frequencies (cm**-1), IR intensities (km*mol⁻¹),
 Raman scattering activities (A**4/amu), Raman depolarization ratios,
 reduced masses (AMU), force constants (mDyne/A) and normal coordinates:
                      1                      2                      3
                        a                      a                      a 
 Frequencies --   135.4110               141.5699               148.8419
 Red. masses --    10.6292                11.8419                14.3786
 Frc consts  --     0.0000                 0.0000                 0.0000
 IR Inten    --     6.9297                 5.7963                 5.1231
 Raman Activ --     0.0000                 0.0000                 0.0000
 Depolar     --     0.0000                 0.0000                 0.0000
 Atom AN      X      Y      Z        X      Y      Z        X      Y      Z
   1   6    -0.29   0.33   0.32     0.32  -0.25   0.19     0.07  -0.18  -0.08
   2   6    -0.07  -0.02  -0.03     0.06  -0.08   0.09    -0.20   0.08   0.00
   3   8    -0.03  -0.25  -0.15    -0.10  -0.20   0.10    -0.58   0.37   0.24
   4   8     0.05  -0.09  -0.18     0.02   0.17   0.03     0.02  -0.11  -0.27
   5   6     0.05  -0.09  -0.15    -0.01   0.14  -0.09     0.04  -0.08  -0.15
   6   6     0.04  -0.12  -0.24     0.08   0.13  -0.25     0.08  -0.08  -0.20
   7   6    -0.01  -0.03  -0.02     0.16   0.10  -0.13     0.07  -0.05  -0.09
   8   6    -0.05   0.09   0.31     0.12   0.09   0.17     0.05  -0.02   0.07
   9   6    -0.03   0.10   0.29     0.03   0.07   0.21     0.02  -0.02   0.10
  10   6     0.03   0.00   0.03    -0.04   0.08   0.03     0.03  -0.04   0.00
  11   6     0.10   0.01  -0.05    -0.18  -0.03  -0.09     0.10   0.02   0.09
  12   8     0.15  -0.02  -0.09    -0.28  -0.02  -0.30     0.18  -0.01   0.15
  13   8     0.12   0.03  -0.08    -0.23  -0.12   0.01     0.12   0.13   0.13
  14   1    -0.07   0.14   0.09     0.08  -0.13   0.08     0.00  -0.10  -0.00
  15   1    -0.08   0.17   0.10     0.12  -0.06   0.05     0.04  -0.08  -0.03
  16   1    -0.15   0.05   0.16     0.13  -0.06   0.05     0.07  -0.02  -0.05
  17   1     0.02  -0.06  -0.13     0.03   0.04  -0.13     0.03  -0.03  -0.09
  18   1    -0.01  -0.02  -0.02     0.07   0.03  -0.07     0.02  -0.02  -0.03
  19   1    -0.03   0.05   0.15     0.05   0.03   0.09     0.01   0.00   0.05
  20   1    -0.02   0.05   0.13     0.00   0.01   0.10     0.00  -0.00   0.06
  21   1     0.03   0.01  -0.02    -0.07  -0.04  -0.01     0.04   0.04   0.03
                      4                      5                      6
                        a                      a                      a 
 Frequencies --   168.1429               196.5848               226.1565
 Red. masses --    14.8725                12.5071                13.4891
 Frc consts  --     0.0000                 0.0000                 0.0000
 IR Inten    --     1.1162                 3.7276                 3.4518
 Raman Activ --     0.0000                 0.0000                 0.0000
 Depolar     --     0.0000                 0.0000                 0.0000
 Atom AN      X      Y      Z        X      Y      Z        X      Y      Z
   1   6     0.12  -0.06   0.06     0.02   0.03   0.21    -0.15  -0.16  -0.08
   2   6     0.02  -0.07  -0.12    -0.05  -0.06  -0.08    -0.19  -0.09  -0.05
   3   8    -0.09  -0.14  -0.13    -0.21  -0.21  -0.11    -0.15  -0.31  -0.18
   4   8     0.08  -0.03  -0.24     0.06  -0.04  -0.28    -0.38   0.21   0.15
   5   6     0.02   0.02  -0.10     0.03   0.01  -0.13    -0.13   0.09   0.11
   6   6     0.02   0.07   0.04     0.02   0.12   0.20     0.09   0.18   0.07
   7   6     0.02   0.10   0.20     0.04   0.14   0.34     0.25   0.07   0.01
   8   6     0.04   0.05   0.11     0.09   0.01  -0.04     0.24  -0.07   0.02
   9   6     0.04  -0.00  -0.04     0.09  -0.09  -0.30     0.04  -0.14   0.07
  10   6     0.01   0.01  -0.07     0.04  -0.04  -0.21    -0.11  -0.03   0.09
  11   6    -0.07   0.03   0.08    -0.01   0.01  -0.02     0.07   0.04  -0.00
  12   8    -0.21   0.21   0.63    -0.01  -0.02  -0.17     0.27  -0.06   0.04
  13   8     0.00  -0.18  -0.44    -0.09   0.13   0.46     0.12   0.27  -0.18
  14   1     0.02  -0.03   0.06    -0.00  -0.00   0.09    -0.05  -0.06  -0.03
  15   1     0.08   0.00   0.01     0.04   0.06   0.06    -0.05  -0.06  -0.02
  16   1     0.02  -0.02   0.02    -0.01  -0.01   0.09    -0.03  -0.04  -0.04
  17   1     0.00   0.02   0.01     0.00   0.05   0.10     0.03   0.09   0.01
  18   1     0.01   0.04   0.10     0.01   0.07   0.19     0.10   0.03  -0.02
  19   1     0.01   0.02   0.04     0.03  -0.00  -0.02     0.10  -0.05  -0.01
  20   1     0.01  -0.01  -0.03     0.03  -0.05  -0.14     0.01  -0.09   0.02
  21   1    -0.01  -0.04  -0.08    -0.03   0.03   0.12     0.06   0.09  -0.04
                      7                      8                      9
                        a                      a                      a 
 Frequencies --   283.5167               307.7773               321.7031
 Red. masses --    11.3671                11.9913                13.9175
 Frc consts  --     0.0000                 0.0000                 0.0000
 IR Inten    --     0.9876                 2.6750                 0.1104
 Raman Activ --     0.0000                 0.0000                 0.0000
 Depolar     --     0.0000                 0.0000                 0.0000
 Atom AN      X      Y      Z        X      Y      Z        X      Y      Z
   1   6     0.15   0.08   0.13    -0.39  -0.17  -0.19     0.04  -0.06  -0.04
   2   6    -0.03   0.04  -0.18    -0.07  -0.21   0.11    -0.11   0.06  -0.03
   3   8    -0.21  -0.04  -0.20    -0.12  -0.18   0.17    -0.15  -0.12  -0.13
   4   8     0.08  -0.05  -0.29     0.12  -0.21  -0.02    -0.26   0.31   0.15
   5   6     0.01   0.07   0.23     0.09  -0.05   0.06     0.09   0.05   0.00
   6   6    -0.05   0.07   0.33     0.13  -0.02   0.10     0.02   0.00  -0.07
   7   6    -0.03  -0.05  -0.17     0.11  -0.00  -0.01    -0.17   0.13  -0.02
   8   6    -0.01  -0.08  -0.32     0.13   0.14  -0.10    -0.18   0.17   0.03
   9   6    -0.04   0.10   0.24     0.14   0.19   0.02    -0.05   0.14  -0.13
  10   6    -0.01   0.10   0.38     0.13   0.19   0.05     0.15  -0.01  -0.06
  11   6     0.03  -0.01   0.08     0.04   0.17  -0.01     0.22  -0.07   0.03
  12   8     0.02  -0.05  -0.12    -0.23   0.35  -0.14     0.10   0.01   0.03
  13   8     0.06  -0.15  -0.03     0.05  -0.15   0.03     0.30  -0.53   0.20
  14   1     0.03  -0.01   0.08    -0.08   0.04  -0.10     0.00  -0.05   0.00
  15   1     0.10   0.08   0.04    -0.19  -0.12  -0.05     0.02  -0.03  -0.01
  16   1     0.04   0.01   0.07    -0.16  -0.04  -0.10     0.04  -0.00  -0.03
  17   1    -0.02   0.02   0.14     0.04   0.01   0.03     0.00  -0.05  -0.02
  18   1    -0.00  -0.04  -0.12     0.01  -0.02  -0.01    -0.07   0.03   0.00
  19   1     0.01  -0.06  -0.22     0.02   0.04  -0.06    -0.06   0.06   0.04
  20   1    -0.02   0.05   0.10     0.04   0.05   0.02    -0.01   0.08  -0.07
  21   1     0.01  -0.05  -0.04    -0.03  -0.06  -0.00     0.01  -0.17   0.06
                     10                     11                     12
                        a                      a                      a 
 Frequencies --   392.7227               405.2988               433.9570
 Red. masses --     1.4814                12.6769                 9.8944
 Frc consts  --     0.0000                 0.0000                 0.0000
 IR Inten    --     2.9108                 8.6448                 0.4646
 Raman Activ --     0.0000                 0.0000                 0.0000
 Depolar     --     0.0000                 0.0000                 0.0000
 Atom AN      X      Y      Z        X      Y      Z        X      Y      Z
   1   6     0.01  -0.01  -0.01    -0.20  -0.06  -0.07     0.00   0.02  -0.00
   2   6    -0.03   0.02  -0.01     0.09  -0.13   0.14     0.02  -0.00  -0.01
   3   8    -0.03   0.04  -0.01     0.08  -0.06   0.22    -0.02   0.01  -0.00
   4   8    -0.03  -0.01   0.02     0.27  -0.03  -0.17     0.04  -0.04  -0.03
   5   6     0.01  -0.03   0.03    -0.06   0.22  -0.14    -0.03   0.04   0.14
   6   6     0.01  -0.03   0.08    -0.06   0.33  -0.04     0.04  -0.10  -0.39
   7   6     0.01  -0.04   0.01    -0.03   0.33  -0.08    -0.04   0.09   0.30
   8   6     0.01   0.00   0.03    -0.04   0.09  -0.11     0.01  -0.02  -0.06
   9   6     0.03   0.01   0.01    -0.16   0.05   0.03     0.03  -0.09  -0.29
  10   6     0.03  -0.01  -0.07    -0.10  -0.02   0.02    -0.09   0.16   0.54
  11   6     0.01   0.01  -0.06    -0.04  -0.16   0.05    -0.03   0.07   0.21
  12   8    -0.05   0.07  -0.01     0.27  -0.38   0.15     0.02  -0.03  -0.14
  13   8     0.02  -0.01  -0.05    -0.03  -0.14   0.02     0.02  -0.04  -0.09
  14   1     0.06  -0.29  -0.46    -0.02   0.02  -0.14     0.01  -0.02  -0.05
  15   1    -0.38   0.37   0.06    -0.19  -0.01  -0.01    -0.04   0.05   0.01
  16   1     0.38  -0.10   0.45    -0.04  -0.03   0.03     0.03  -0.01   0.05
  17   1     0.00  -0.00   0.03    -0.02   0.10   0.00     0.03  -0.07  -0.29
  18   1     0.00  -0.02  -0.02     0.01   0.11  -0.02    -0.02   0.05   0.17
  19   1    -0.00   0.01   0.01     0.03  -0.01  -0.05     0.01  -0.02  -0.07
  20   1     0.01   0.00   0.01    -0.05   0.03   0.02     0.03  -0.07  -0.23
  21   1    -0.00   0.01   0.04    -0.01  -0.04   0.01     0.01  -0.03  -0.09
                     13                     14                     15
                        a                      a                      a 
 Frequencies --   497.4528               512.1080               542.0144
 Red. masses --    12.7916                10.2744                12.2959
 Frc consts  --     0.0000                 0.0000                 0.0000
 IR Inten    --    26.6469                 9.1952                 0.1591
 Raman Activ --     0.0000                 0.0000                 0.0000
 Depolar     --     0.0000                 0.0000                 0.0000
 Atom AN      X      Y      Z        X      Y      Z        X      Y      Z
   1   6     0.03  -0.06   0.11    -0.01  -0.02  -0.02    -0.00   0.10  -0.16
   2   6    -0.00  -0.08  -0.01    -0.03   0.06   0.09     0.13   0.09   0.14
   3   8     0.25   0.17   0.07     0.05  -0.04   0.03    -0.20  -0.24   0.06
   4   8    -0.10  -0.13  -0.07    -0.12   0.22   0.09     0.26   0.31  -0.07
   5   6    -0.30  -0.01  -0.20     0.19  -0.16  -0.49     0.05   0.26  -0.03
   6   6    -0.19   0.14  -0.07     0.06  -0.10  -0.05    -0.33   0.06  -0.04
   7   6     0.07   0.03   0.07    -0.08   0.03   0.30    -0.12  -0.15   0.01
   8   6     0.07  -0.17  -0.06     0.01  -0.13  -0.38    -0.13  -0.39   0.14
   9   6    -0.15  -0.18   0.12     0.01   0.11   0.28     0.20  -0.22   0.07
  10   6    -0.27  -0.02  -0.04     0.09  -0.01   0.07     0.06  -0.02   0.01
  11   6     0.15   0.21  -0.02    -0.03  -0.02   0.11     0.05   0.03  -0.01
  12   8     0.04   0.36  -0.11    -0.05  -0.06  -0.04    -0.08   0.14  -0.05
  13   8     0.32  -0.23   0.11    -0.04   0.07  -0.08     0.13   0.03   0.01
  14   1    -0.00  -0.03   0.06    -0.00  -0.03  -0.03     0.03   0.09  -0.13
  15   1     0.05   0.02   0.03    -0.03  -0.03  -0.00    -0.11  -0.06  -0.04
  16   1    -0.00  -0.03   0.06     0.04   0.02  -0.03     0.00   0.05  -0.10
  17   1    -0.05   0.12  -0.01     0.00  -0.04   0.10    -0.10  -0.02  -0.01
  18   1     0.07   0.05   0.06    -0.06   0.05   0.27     0.06  -0.01  -0.02
  19   1     0.06  -0.08  -0.02    -0.00  -0.05  -0.18    -0.06  -0.10   0.03
  20   1    -0.05  -0.11   0.10    -0.02   0.10   0.22     0.06  -0.04  -0.01
  21   1    -0.02  -0.11   0.02     0.03   0.03  -0.03     0.03   0.01   0.01
                     16                     17                     18
                        a                      a                      a 
 Frequencies --   614.4562               640.9079               645.9142
 Red. masses --    12.3932                11.9783                10.3430
 Frc consts  --     0.0000                 0.0000                 0.0000
 IR Inten    --    41.6644                27.4912                24.6218
 Raman Activ --     0.0000                 0.0000                 0.0000
 Depolar     --     0.0000                 0.0000                 0.0000
 Atom AN      X      Y      Z        X      Y      Z        X      Y      Z
   1   6    -0.00   0.00  -0.01     0.21   0.31  -0.18    -0.09  -0.10   0.06
   2   6     0.04   0.00   0.04     0.35  -0.06  -0.08     0.30  -0.51  -0.39
   3   8     0.01  -0.03   0.04    -0.40  -0.16   0.03    -0.11   0.29   0.09
   4   8     0.02   0.02  -0.07     0.08  -0.13   0.29    -0.14   0.15   0.12
   5   6     0.12  -0.07   0.02    -0.11  -0.08   0.13     0.08   0.10  -0.03
   6   6     0.29   0.07   0.06     0.11  -0.05  -0.11    -0.07   0.04  -0.04
   7   6    -0.05   0.28  -0.13     0.06   0.07   0.13    -0.06   0.01  -0.04
   8   6    -0.13  -0.02   0.03     0.08   0.06  -0.16    -0.05  -0.09   0.01
   9   6    -0.34  -0.17  -0.03    -0.25   0.01   0.12     0.16   0.01   0.01
  10   6     0.02  -0.29   0.12    -0.14  -0.07  -0.16     0.12   0.01   0.02
  11   6     0.11  -0.19   0.08     0.02   0.04  -0.12     0.01  -0.06   0.05
  12   8    -0.45   0.09  -0.10     0.07   0.07   0.03    -0.08  -0.04  -0.01
  13   8     0.31   0.22  -0.01    -0.04  -0.05   0.03     0.04   0.06   0.01
  14   1     0.01   0.02  -0.02     0.10   0.21  -0.12    -0.00   0.14   0.05
  15   1    -0.02  -0.01  -0.00    -0.00   0.09  -0.05     0.02   0.17   0.03
  16   1    -0.00   0.00  -0.01    -0.04   0.05  -0.03    -0.26  -0.18   0.21
  17   1     0.08  -0.04   0.03     0.03   0.02  -0.04    -0.03  -0.01   0.03
  18   1    -0.04   0.06  -0.05    -0.02   0.02   0.07     0.01   0.03   0.02
  19   1     0.06  -0.07   0.04     0.06  -0.01  -0.05    -0.04  -0.00   0.03
  20   1    -0.09  -0.02  -0.03    -0.08  -0.04   0.08     0.05   0.05   0.01
  21   1     0.22   0.13  -0.01    -0.06  -0.03   0.03     0.06   0.02  -0.05
                     19                     20                     21
                        a                      a                      a 
 Frequencies --   663.8799               729.7800               745.4733
 Red. masses --    10.6049                11.8068                10.0292
 Frc consts  --     0.0000                 0.0000                 0.0000
 IR Inten    --     6.9744                10.7955                32.2475
 Raman Activ --     0.0000                 0.0000                 0.0000
 Depolar     --     0.0000                 0.0000                 0.0000
 Atom AN      X      Y      Z        X      Y      Z        X      Y      Z
   1   6    -0.08  -0.12   0.06     0.04   0.09  -0.02     0.08   0.07  -0.05
   2   6    -0.14   0.02  -0.01    -0.06   0.06  -0.00     0.15  -0.02   0.07
   3   8     0.10   0.07  -0.04    -0.05  -0.04  -0.07    -0.00  -0.03   0.11
   4   8     0.03  -0.03  -0.08     0.03  -0.25   0.15    -0.19   0.06  -0.09
   5   6    -0.03   0.18   0.42    -0.18   0.06   0.02    -0.07  -0.09  -0.30
   6   6    -0.03  -0.02  -0.25    -0.29   0.06  -0.12    -0.13  -0.02   0.15
   7   6    -0.08   0.11   0.27     0.07  -0.10   0.01     0.08  -0.18   0.08
   8   6    -0.01  -0.11  -0.21     0.14   0.16  -0.09     0.10   0.21   0.09
   9   6     0.06   0.09   0.27     0.18   0.15  -0.04     0.01   0.11  -0.03
  10   6     0.12  -0.06  -0.20     0.00   0.08  -0.16    -0.11   0.15   0.29
  11   6     0.06  -0.18  -0.37    -0.12  -0.17   0.29     0.03  -0.22  -0.40
  12   8    -0.11  -0.00   0.13    -0.27  -0.25  -0.05    -0.13  -0.08   0.15
  13   8     0.06   0.07   0.06     0.40   0.07   0.00     0.17   0.04   0.07
  14   1    -0.04  -0.07   0.07     0.00  -0.03   0.00     0.04   0.09  -0.04
  15   1     0.03  -0.03   0.01     0.03   0.01  -0.01    -0.02   0.00  -0.01
  16   1    -0.01  -0.03   0.01     0.06   0.04  -0.02    -0.03   0.01  -0.02
  17   1     0.01  -0.06  -0.24    -0.08   0.13   0.05    -0.02  -0.00  -0.14
  18   1     0.01   0.02  -0.01     0.03   0.02   0.11     0.02  -0.12  -0.16
  19   1     0.00  -0.06  -0.19    -0.04   0.12   0.08     0.01   0.02  -0.23
  20   1     0.03   0.04   0.01     0.03   0.06   0.11     0.03  -0.07  -0.21
  21   1     0.03   0.08   0.16     0.25   0.07  -0.07     0.07   0.10   0.20
                     22                     23                     24
                        a                      a                      a 
 Frequencies --   770.6362               782.2421               810.0190
 Red. masses --     3.4668                12.9809                 7.4912
 Frc consts  --     0.0000                 0.0000                 0.0000
 IR Inten    --   274.7219                41.1129               133.5975
 Raman Activ --     0.0000                 0.0000                 0.0000
 Depolar     --     0.0000                 0.0000                 0.0000
 Atom AN      X      Y      Z        X      Y      Z        X      Y      Z
   1   6     0.00  -0.01   0.00    -0.02   0.02  -0.02     0.07   0.08  -0.02
   2   6    -0.02  -0.01  -0.03    -0.18   0.05  -0.10     0.07   0.01   0.06
   3   8    -0.03   0.02  -0.02    -0.10   0.02  -0.19    -0.00  -0.03   0.04
   4   8     0.03  -0.04   0.06     0.18  -0.36   0.45    -0.25  -0.24   0.02
   5   6     0.01  -0.00  -0.02     0.08  -0.05  -0.24     0.03  -0.02  -0.10
   6   6    -0.00   0.03   0.02    -0.04   0.19  -0.02    -0.02   0.12   0.12
   7   6    -0.02   0.04  -0.01    -0.09   0.27  -0.13    -0.08   0.20   0.08
   8   6    -0.02  -0.03   0.02    -0.11  -0.17   0.08    -0.08  -0.07   0.11
   9   6     0.02  -0.02  -0.01     0.18  -0.06   0.00     0.16   0.04   0.17
  10   6     0.02  -0.00  -0.01     0.06   0.09   0.24     0.12  -0.05  -0.24
  11   6    -0.03   0.07   0.23     0.06  -0.07  -0.30    -0.01   0.09   0.35
  12   8     0.02  -0.02  -0.13    -0.01   0.06   0.09     0.03  -0.01  -0.10
  13   8     0.03  -0.08  -0.29    -0.05   0.02   0.06    -0.05  -0.01  -0.05
  14   1    -0.00   0.01   0.03    -0.04  -0.10   0.07     0.03   0.03  -0.02
  15   1     0.03   0.00  -0.00     0.09   0.03  -0.01     0.01   0.01  -0.01
  16   1    -0.03  -0.01  -0.00     0.07   0.02   0.00     0.03   0.03  -0.02
  17   1    -0.00   0.00  -0.00    -0.02   0.05   0.06     0.02  -0.08  -0.31
  18   1     0.01   0.02  -0.01     0.05   0.13   0.00     0.06  -0.04  -0.37
  19   1    -0.00  -0.01   0.01     0.01  -0.07   0.00     0.03  -0.12  -0.33
  20   1     0.01   0.00  -0.00     0.06   0.03  -0.04     0.09  -0.02  -0.24
  21   1    -0.14   0.25   0.86    -0.02   0.00   0.00     0.02  -0.04  -0.15
                     25                     26                     27
                        a                      a                      a 
 Frequencies --   823.6987               890.2984               931.2781
 Red. masses --    11.6961                 3.4426                 3.9416
 Frc consts  --     0.0000                 0.0000                 0.0000
 IR Inten    --   534.6873                 6.5886                 1.6722
 Raman Activ --     0.0000                 0.0000                 0.0000
 Depolar     --     0.0000                 0.0000                 0.0000
 Atom AN      X      Y      Z        X      Y      Z        X      Y      Z
   1   6     0.14   0.13  -0.02    -0.00   0.00  -0.01    -0.01   0.01  -0.00
   2   6     0.18   0.02   0.18    -0.02  -0.01  -0.01    -0.01  -0.01  -0.00
   3   8     0.06  -0.09   0.15    -0.01   0.01  -0.01     0.00  -0.00  -0.00
   4   8    -0.53  -0.28  -0.27     0.04   0.01   0.05     0.01   0.00   0.01
   5   6    -0.01   0.03   0.12     0.01  -0.01  -0.07     0.01  -0.01  -0.03
   6   6     0.02   0.05  -0.08    -0.03   0.09   0.34    -0.01   0.06   0.20
   7   6    -0.07   0.15  -0.14    -0.00   0.00   0.05     0.03  -0.08  -0.24
   8   6    -0.07  -0.12  -0.06     0.01  -0.04  -0.15     0.02  -0.06  -0.18
   9   6     0.25  -0.02  -0.06     0.02  -0.07  -0.22    -0.04   0.10   0.32
  10   6     0.10   0.04   0.11    -0.01   0.01   0.03    -0.00  -0.01  -0.05
  11   6     0.11  -0.06  -0.11    -0.01  -0.00  -0.03    -0.02   0.01   0.01
  12   8     0.01   0.04   0.04    -0.00  -0.00   0.01     0.00  -0.00   0.00
  13   8    -0.11   0.01  -0.01     0.01   0.00   0.01     0.01  -0.00   0.00
  14   1     0.07   0.10  -0.08    -0.01  -0.00   0.01    -0.00  -0.01   0.00
  15   1    -0.05  -0.02  -0.00     0.01   0.00  -0.00     0.00  -0.00  -0.00
  16   1     0.03   0.06  -0.06    -0.00  -0.00   0.00     0.02   0.01  -0.01
  17   1    -0.01   0.03   0.12     0.06  -0.18  -0.65     0.03  -0.08  -0.30
  18   1    -0.01   0.12   0.18     0.01  -0.03  -0.08    -0.05   0.12   0.43
  19   1    -0.06   0.05   0.23    -0.04   0.08   0.26    -0.05   0.09   0.32
  20   1     0.05   0.12   0.16    -0.07   0.14   0.47     0.07  -0.16  -0.54
  21   1    -0.01   0.03   0.06    -0.00  -0.01  -0.01    -0.00  -0.00  -0.00
                     28                     29                     30
                        a                      a                      a 
 Frequencies --   935.6895               940.2003              1010.3517
 Red. masses --     3.6727                12.3402                 9.9166
 Frc consts  --     0.0000                 0.0000                 0.0000
 IR Inten    --     7.6669               800.5635               357.3195
 Raman Activ --     0.0000                 0.0000                 0.0000
 Depolar     --     0.0000                 0.0000                 0.0000
 Atom AN      X      Y      Z        X      Y      Z        X      Y      Z
   1   6    -0.00  -0.00   0.00     0.04   0.06  -0.03    -0.06  -0.35   0.30
   2   6     0.00   0.01   0.00    -0.05  -0.06  -0.02     0.38   0.36   0.10
   3   8    -0.00   0.00  -0.01     0.03  -0.03   0.08    -0.12   0.15  -0.38
   4   8     0.00  -0.01   0.01     0.00   0.08  -0.05    -0.04  -0.13   0.06
   5   6     0.02  -0.01  -0.07    -0.07  -0.12   0.03     0.06   0.05  -0.03
   6   6    -0.03  -0.01  -0.08     0.32  -0.08   0.04     0.01  -0.02   0.01
   7   6    -0.02   0.08   0.31    -0.11   0.14  -0.02    -0.00   0.01  -0.01
   8   6     0.05  -0.07  -0.32    -0.12  -0.18   0.01     0.00  -0.01   0.00
   9   6    -0.03   0.02   0.09     0.19  -0.00   0.03    -0.02  -0.02   0.01
  10   6     0.01   0.00   0.07    -0.15   0.18  -0.07    -0.06   0.06  -0.02
  11   6     0.06  -0.02   0.01    -0.59   0.19  -0.15    -0.10   0.02  -0.02
  12   8    -0.00   0.01  -0.00     0.04  -0.14   0.05     0.01  -0.02   0.01
  13   8    -0.04   0.00  -0.01     0.41   0.00   0.07     0.07  -0.00   0.01
  14   1    -0.00  -0.00   0.00     0.01   0.02  -0.02     0.07   0.13  -0.10
  15   1    -0.00  -0.00   0.00     0.01   0.02  -0.01    -0.34  -0.25   0.10
  16   1    -0.00  -0.00   0.00     0.00   0.01  -0.01    -0.19  -0.11   0.01
  17   1    -0.03   0.06   0.18     0.08  -0.07   0.07     0.00  -0.04   0.01
  18   1     0.08  -0.15  -0.54    -0.06  -0.00  -0.07    -0.01   0.00   0.01
  19   1    -0.07   0.17   0.56    -0.05  -0.03   0.05     0.01  -0.01   0.01
  20   1     0.02  -0.06  -0.20     0.05  -0.02   0.00    -0.01  -0.05   0.01
  21   1     0.01   0.01  -0.00    -0.08  -0.08   0.01    -0.01  -0.01  -0.00
                     31                     32                     33
                        a                      a                      a 
 Frequencies --  1040.6990              1070.5040              1078.0701
 Red. masses --     5.0480                 8.8013                 8.4694
 Frc consts  --     0.0000                 0.0000                 0.0000
 IR Inten    --    25.6406               156.8206                58.1689
 Raman Activ --     0.0000                 0.0000                 0.0000
 Depolar     --     0.0000                 0.0000                 0.0000
 Atom AN      X      Y      Z        X      Y      Z        X      Y      Z
   1   6     0.21  -0.21  -0.28    -0.05   0.01  -0.10     0.05  -0.00   0.05
   2   6    -0.24   0.27   0.20     0.05   0.03   0.05    -0.07  -0.04  -0.03
   3   8     0.05  -0.10   0.01     0.00  -0.03   0.04     0.01   0.02  -0.01
   4   8     0.04  -0.02  -0.02    -0.15  -0.15  -0.00     0.11   0.15  -0.02
   5   6    -0.04  -0.06  -0.00     0.37   0.23  -0.01    -0.17  -0.22   0.04
   6   6     0.00   0.01   0.00    -0.30  -0.05  -0.03    -0.14  -0.12   0.02
   7   6    -0.01   0.01  -0.01    -0.04   0.03  -0.02    -0.28   0.31  -0.13
   8   6    -0.01  -0.01  -0.00     0.23   0.18  -0.02     0.25   0.25  -0.05
   9   6     0.03   0.01   0.01    -0.17  -0.07  -0.00     0.34  -0.15   0.09
  10   6     0.00  -0.00   0.00     0.18  -0.19   0.08    -0.11  -0.06   0.00
  11   6     0.03  -0.01   0.01    -0.28   0.10  -0.07     0.14  -0.03   0.03
  12   8    -0.01  -0.01  -0.01     0.02  -0.00   0.00    -0.01   0.03  -0.01
  13   8    -0.01   0.01  -0.00     0.18   0.09   0.00    -0.08  -0.01  -0.01
  14   1     0.09   0.30   0.05    -0.05  -0.08   0.09     0.04   0.06  -0.06
  15   1     0.10   0.36  -0.04     0.12   0.10  -0.03    -0.07  -0.05   0.01
  16   1    -0.42  -0.35   0.30     0.02  -0.02   0.05    -0.02   0.01  -0.03
  17   1     0.00   0.04  -0.01    -0.11  -0.27   0.06    -0.07  -0.26   0.05
  18   1     0.00   0.01   0.02     0.00   0.02   0.00    -0.26   0.01  -0.03
  19   1    -0.01   0.01   0.02     0.21  -0.04   0.04     0.12   0.05   0.00
  20   1     0.01   0.02  -0.01    -0.06  -0.15   0.04     0.08  -0.37   0.12
  21   1    -0.01  -0.01  -0.02    -0.30  -0.15  -0.00     0.06   0.03  -0.00
                     34                     35                     36
                        a                      a                      a 
 Frequencies --  1093.9331              1124.9930              1154.4463
 Red. masses --     6.1271                 6.3142                 6.0768
 Frc consts  --     0.0000                 0.0000                 0.0000
 IR Inten    --   704.4874                 9.9390                 0.6594
 Raman Activ --     0.0000                 0.0000                 0.0000
 Depolar     --     0.0000                 0.0000                 0.0000
 Atom AN      X      Y      Z        X      Y      Z        X      Y      Z
   1   6     0.26   0.04   0.19     0.20   0.05   0.08     0.10   0.03   0.04
   2   6    -0.33  -0.18  -0.10    -0.31  -0.15  -0.05    -0.18  -0.09  -0.02
   3   8     0.06   0.06  -0.01     0.06   0.03   0.02     0.02   0.02  -0.01
   4   8     0.05   0.05   0.02    -0.04  -0.08   0.03    -0.04  -0.16   0.07
   5   6    -0.04  -0.18   0.04     0.23   0.17  -0.01     0.13   0.42  -0.11
   6   6    -0.14   0.06  -0.03    -0.05  -0.04   0.00     0.22   0.11  -0.01
   7   6     0.03   0.01   0.00     0.03  -0.03   0.01    -0.00  -0.16   0.05
   8   6     0.02   0.02  -0.00     0.03  -0.06   0.02    -0.10   0.08  -0.04
   9   6    -0.03   0.07  -0.02    -0.19   0.01  -0.03     0.04  -0.17   0.06
  10   6     0.17  -0.21   0.09     0.02   0.21  -0.06    -0.04  -0.04   0.01
  11   6    -0.00   0.03  -0.01    -0.17   0.02  -0.03     0.06  -0.05   0.02
  12   8    -0.06  -0.04   0.00     0.12   0.07  -0.00    -0.02   0.02  -0.01
  13   8     0.09   0.13  -0.02    -0.10  -0.18   0.04     0.03   0.05  -0.01
  14   1     0.19   0.27  -0.26     0.13   0.20  -0.16     0.06   0.09  -0.08
  15   1    -0.25  -0.18   0.06    -0.12  -0.06   0.02    -0.04  -0.02   0.01
  16   1    -0.07   0.05  -0.13    -0.06   0.02  -0.07    -0.02   0.02  -0.04
  17   1    -0.03   0.13  -0.05    -0.03  -0.22   0.06     0.08   0.12  -0.01
  18   1     0.12   0.06  -0.01     0.11   0.04   0.00    -0.34  -0.22   0.02
  19   1     0.04  -0.02   0.00     0.14  -0.11   0.05    -0.36   0.23  -0.12
  20   1     0.01   0.20  -0.07    -0.06  -0.12   0.02    -0.01  -0.34   0.10
  21   1    -0.37  -0.18  -0.01     0.51   0.24   0.00    -0.14  -0.07  -0.00
                     37                     38                     39
                        a                      a                      a 
 Frequencies --  1176.8426              1189.5273              1225.0297
 Red. masses --     1.9953                 8.2555                 5.8734
 Frc consts  --     0.0000                 0.0000                 0.0000
 IR Inten    --    16.4486               120.1286                12.1581
 Raman Activ --     0.0000                 0.0000                 0.0000
 Depolar     --     0.0000                 0.0000                 0.0000
 Atom AN      X      Y      Z        X      Y      Z        X      Y      Z
   1   6     0.00  -0.00   0.00     0.03   0.01   0.01     0.02   0.01   0.00
   2   6     0.01   0.01  -0.00    -0.07  -0.04   0.00    -0.03  -0.02   0.03
   3   8    -0.00  -0.00  -0.00     0.01   0.01  -0.01    -0.00   0.02  -0.04
   4   8    -0.01  -0.02   0.01    -0.00  -0.04   0.02     0.04  -0.04   0.04
   5   6    -0.06   0.09  -0.04    -0.05   0.21  -0.06    -0.32   0.29  -0.13
   6   6    -0.02   0.02  -0.01     0.11  -0.11   0.04     0.05  -0.18   0.05
   7   6    -0.05  -0.04   0.00     0.01  -0.02   0.01     0.24   0.09   0.00
   8   6     0.07   0.01   0.01    -0.02  -0.15   0.04    -0.02   0.13  -0.04
   9   6     0.03  -0.06   0.02    -0.06   0.08  -0.03     0.07  -0.22   0.08
  10   6     0.13  -0.09   0.04    -0.16   0.45  -0.15    -0.03  -0.18   0.05
  11   6    -0.13   0.04  -0.03     0.38  -0.11   0.09    -0.04   0.00  -0.01
  12   8     0.07   0.06  -0.01    -0.18  -0.20   0.03     0.04   0.07  -0.01
  13   8    -0.02  -0.05   0.01     0.04   0.12  -0.03    -0.01  -0.02   0.00
  14   1     0.00   0.00  -0.00     0.02   0.02  -0.02     0.01   0.02  -0.01
  15   1    -0.00  -0.00   0.00     0.00   0.01   0.00    -0.00   0.00   0.00
  16   1    -0.00  -0.00   0.00     0.01   0.01  -0.01    -0.01  -0.00  -0.00
  17   1     0.03   0.32  -0.08     0.01  -0.26   0.07    -0.03  -0.48   0.13
  18   1    -0.60  -0.30   0.01    -0.09  -0.05   0.01    -0.02  -0.01   0.01
  19   1     0.40  -0.24   0.13     0.32  -0.25   0.12    -0.14   0.12  -0.06
  20   1     0.03   0.30  -0.09    -0.02   0.02  -0.01     0.06   0.50  -0.14
  21   1     0.12   0.06   0.00    -0.30  -0.15  -0.00     0.04   0.02   0.00
                     40                     41                     42
                        a                      a                      a 
 Frequencies --  1247.4002              1381.8161              1391.3231
 Red. masses --    10.1739                 8.4654                 3.2786
 Frc consts  --     0.0000                 0.0000                 0.0000
 IR Inten    --     0.2876                 7.4561                88.1724
 Raman Activ --     0.0000                 0.0000                 0.0000
 Depolar     --     0.0000                 0.0000                 0.0000
 Atom AN      X      Y      Z        X      Y      Z        X      Y      Z
   1   6    -0.01   0.00  -0.00    -0.03  -0.03   0.01     0.21   0.34  -0.07
   2   6     0.02   0.01  -0.00    -0.02  -0.04   0.03    -0.02   0.03  -0.06
   3   8    -0.00  -0.00   0.00    -0.01   0.02  -0.03     0.02  -0.03   0.06
   4   8     0.01   0.03  -0.01     0.01  -0.03   0.02    -0.01  -0.02   0.00
   5   6    -0.26   0.07  -0.06     0.04   0.28  -0.07    -0.04   0.06  -0.02
   6   6    -0.07  -0.39   0.10     0.18  -0.21   0.08     0.05   0.02   0.00
   7   6     0.22   0.16  -0.02    -0.30  -0.18   0.02    -0.04  -0.06   0.01
   8   6    -0.32   0.19  -0.10    -0.13   0.26  -0.09    -0.05   0.03  -0.02
   9   6    -0.06  -0.28   0.08     0.25   0.05   0.02     0.04   0.06  -0.01
  10   6     0.46   0.23   0.00    -0.32  -0.25   0.03     0.00  -0.06   0.02
  11   6    -0.05  -0.00  -0.01    -0.04  -0.14   0.04    -0.01  -0.03   0.01
  12   8     0.01  -0.03   0.01     0.07   0.14  -0.03     0.01   0.03  -0.01
  13   8    -0.00   0.02  -0.01     0.00   0.00  -0.00    -0.00   0.00  -0.00
  14   1    -0.00  -0.01   0.01     0.02   0.08  -0.02    -0.09  -0.53  -0.00
  15   1    -0.00  -0.00  -0.00     0.04   0.05   0.00    -0.16  -0.41  -0.02
  16   1     0.00   0.00   0.00     0.07   0.03  -0.03    -0.46  -0.20   0.22
  17   1     0.02   0.26  -0.06     0.09   0.21  -0.04     0.01  -0.03   0.01
  18   1     0.12   0.08   0.00     0.36   0.16  -0.00     0.05   0.01   0.00
  19   1     0.08  -0.06   0.03     0.28  -0.13   0.08     0.06  -0.04   0.02
  20   1    -0.03  -0.24   0.06     0.08   0.01   0.01     0.01  -0.05   0.01
  21   1    -0.02  -0.01  -0.00    -0.01  -0.00  -0.00    -0.00  -0.00  -0.00
                     43                     44                     45
                        a                      a                      a 
 Frequencies --  1405.3406              1420.6123              1427.8644
 Red. masses --     9.1108                 3.9846                 6.8571
 Frc consts  --     0.0000                 0.0000                 0.0000
 IR Inten    --    30.1236               131.8460               140.4154
 Raman Activ --     0.0000                 0.0000                 0.0000
 Depolar     --     0.0000                 0.0000                 0.0000
 Atom AN      X      Y      Z        X      Y      Z        X      Y      Z
   1   6     0.05   0.00   0.02     0.08  -0.15   0.16    -0.02   0.07   0.11
   2   6    -0.03   0.10  -0.20     0.04   0.19  -0.23     0.02  -0.27   0.45
   3   8     0.04  -0.08   0.16     0.03  -0.10   0.19    -0.07   0.16  -0.31
   4   8    -0.03   0.00  -0.01     0.00  -0.02   0.01     0.01   0.04  -0.03
   5   6     0.38  -0.01   0.06    -0.10   0.00  -0.02     0.07  -0.01   0.02
   6   6    -0.14  -0.29   0.06     0.04   0.08  -0.02    -0.03  -0.07   0.01
   7   6    -0.05   0.20  -0.06     0.03  -0.05   0.02    -0.03   0.04  -0.02
   8   6     0.20   0.04   0.01    -0.07  -0.00  -0.01     0.06  -0.01   0.01
   9   6    -0.05  -0.34   0.10     0.02   0.08  -0.02    -0.02  -0.05   0.01
  10   6    -0.30   0.24  -0.11     0.06  -0.05   0.02    -0.03   0.02  -0.01
  11   6     0.05  -0.06   0.03    -0.05  -0.09   0.02     0.05   0.14  -0.03
  12   8    -0.01  -0.00  -0.00     0.04   0.07  -0.01    -0.05  -0.10   0.02
  13   8     0.02   0.01   0.00    -0.00   0.01  -0.00     0.00  -0.01   0.00
  14   1    -0.02  -0.10   0.02    -0.03  -0.29  -0.08     0.05  -0.25  -0.42
  15   1    -0.10   0.02   0.01    -0.14   0.49   0.06     0.37   0.16  -0.02
  16   1    -0.10   0.00  -0.06    -0.30   0.14  -0.51    -0.26   0.02  -0.18
  17   1     0.00   0.28  -0.08    -0.00  -0.09   0.02     0.00   0.09  -0.02
  18   1    -0.00   0.07  -0.02    -0.00  -0.02   0.01     0.00   0.02  -0.01
  19   1    -0.15   0.15  -0.06     0.05  -0.04   0.02    -0.04   0.03  -0.01
  20   1     0.01   0.31  -0.09     0.00  -0.07   0.02    -0.00   0.05  -0.01
  21   1    -0.02  -0.02   0.00    -0.01  -0.00  -0.00     0.03   0.01   0.00
                     46                     47                     48
                        a                      a                      a 
 Frequencies --  1437.3336              1463.0677              1517.5995
 Red. masses --    12.5449                 5.5846                11.2946
 Frc consts  --     0.0000                 0.0000                 0.0000
 IR Inten    --   930.6576               145.4324                59.0591
 Raman Activ --     0.0000                 0.0000                 0.0000
 Depolar     --     0.0000                 0.0000                 0.0000
 Atom AN      X      Y      Z        X      Y      Z        X      Y      Z
   1   6    -0.02   0.03  -0.00     0.22   0.05  -0.17     0.00   0.00  -0.01
   2   6     0.00  -0.08   0.13    -0.01  -0.30   0.35    -0.00  -0.02   0.03
   3   8    -0.02   0.05  -0.09    -0.05   0.14  -0.25    -0.00   0.01  -0.02
   4   8     0.01   0.05  -0.02     0.01   0.03  -0.02    -0.01   0.02  -0.02
   5   6     0.01  -0.14   0.04     0.02  -0.01   0.01     0.25  -0.27   0.12
   6   6    -0.05   0.06  -0.02    -0.01  -0.02   0.00    -0.07   0.38  -0.12
   7   6     0.09   0.04  -0.00    -0.03   0.01  -0.01     0.21  -0.17   0.08
   8   6    -0.01  -0.05   0.01     0.04  -0.01   0.01    -0.43   0.34  -0.16
   9   6    -0.03   0.01  -0.01    -0.01  -0.01   0.00     0.15  -0.35   0.12
  10   6    -0.00   0.18  -0.05    -0.00   0.02  -0.01    -0.16   0.10  -0.05
  11   6    -0.25  -0.69   0.16    -0.01  -0.00   0.00     0.03   0.08  -0.02
  12   8     0.25   0.44  -0.09     0.00  -0.00  -0.00    -0.03  -0.05   0.01
  13   8     0.03   0.07  -0.02     0.00   0.00   0.00     0.01  -0.00   0.00
  14   1     0.01   0.00  -0.07    -0.12  -0.07   0.51    -0.00  -0.01   0.01
  15   1     0.10  -0.03  -0.01    -0.51   0.22   0.04    -0.00   0.00  -0.00
  16   1     0.00  -0.01   0.04     0.03   0.06  -0.14    -0.00  -0.00  -0.00
  17   1    -0.02  -0.05   0.01     0.00   0.04  -0.01    -0.04  -0.14   0.03
  18   1    -0.06  -0.03   0.00     0.00   0.01  -0.00     0.01  -0.07   0.02
  19   1    -0.03   0.00  -0.00    -0.01   0.01  -0.01     0.15  -0.08   0.04
  20   1    -0.01   0.00  -0.00    -0.00   0.01  -0.00     0.05   0.07  -0.01
  21   1    -0.15  -0.06  -0.01    -0.00  -0.00   0.00     0.01  -0.00   0.00
                     49                     50                     51
                        a                      a                      a 
 Frequencies --  1526.5869              2814.9957              2822.6706
 Red. masses --    11.3070                 1.8673                 1.7828
 Frc consts  --     0.0000                 0.0000                 0.0000
 IR Inten    --    22.2855                 4.5881                 2.4710
 Raman Activ --     0.0000                 0.0000                 0.0000
 Depolar     --     0.0000                 0.0000                 0.0000
 Atom AN      X      Y      Z        X      Y      Z        X      Y      Z
   1   6     0.01   0.01  -0.00     0.14  -0.22  -0.09     0.21   0.01   0.16
   2   6    -0.02  -0.02   0.01     0.00  -0.01   0.00     0.01   0.00   0.00
   3   8     0.00   0.00  -0.00    -0.00   0.00  -0.00    -0.00  -0.00   0.00
   4   8     0.01   0.02  -0.01     0.00   0.00   0.00    -0.00  -0.00  -0.00
   5   6     0.20   0.03   0.02    -0.00  -0.00   0.00     0.00   0.00  -0.00
   6   6    -0.22  -0.27   0.05    -0.00   0.00  -0.00     0.00  -0.00   0.00
   7   6     0.51   0.28  -0.01    -0.00  -0.00   0.00    -0.00   0.00   0.00
   8   6    -0.28  -0.12  -0.00    -0.00   0.00   0.00    -0.00   0.00  -0.00
   9   6     0.15   0.36  -0.09     0.00   0.00  -0.00    -0.00  -0.00  -0.00
  10   6    -0.32  -0.26   0.03     0.00  -0.00  -0.00     0.00   0.00   0.00
  11   6     0.02   0.03  -0.00    -0.00   0.00   0.00    -0.00  -0.00  -0.00
  12   8    -0.01   0.01  -0.00     0.00  -0.00  -0.00     0.00   0.00   0.00
  13   8    -0.00  -0.01   0.00    -0.00   0.00  -0.00    -0.00   0.00  -0.00
  14   1    -0.00  -0.00   0.01    -0.27   0.03  -0.09    -0.83   0.18  -0.19
  15   1    -0.01  -0.00   0.00     0.02  -0.03   0.03    -0.01   0.02  -0.30
  16   1    -0.00  -0.00   0.00    -0.23   0.80   0.38     0.10  -0.25  -0.09
  17   1    -0.05   0.05  -0.02     0.00   0.00   0.00    -0.00   0.00   0.00
  18   1    -0.17  -0.07   0.00     0.00   0.00   0.00    -0.00   0.00   0.00
  19   1    -0.01  -0.08   0.02     0.00  -0.00  -0.00    -0.00  -0.00   0.00
  20   1     0.03  -0.13   0.04     0.00  -0.00  -0.00     0.00  -0.00  -0.00
  21   1     0.01   0.00   0.00     0.00  -0.00   0.00     0.00  -0.00   0.00
                     52                     53                     54
                        a                      a                      a 
 Frequencies --  2831.7013              2868.3104              3057.0807
 Red. masses --     1.5007                 1.8584                 1.7782
 Frc consts  --     0.0000                 0.0000                 0.0000
 IR Inten    --     2.9380               386.6891                 1.4916
 Raman Activ --     0.0000                 0.0000                 0.0000
 Depolar     --     0.0000                 0.0000                 0.0000
 Atom AN      X      Y      Z        X      Y      Z        X      Y      Z
   1   6     0.04   0.03  -0.21    -0.00   0.00  -0.00    -0.00  -0.00   0.00
   2   6     0.00   0.00  -0.01    -0.00   0.00  -0.00     0.00   0.00   0.00
   3   8     0.00  -0.00   0.00    -0.00  -0.00   0.00    -0.00  -0.00  -0.00
   4   8    -0.00  -0.00   0.00     0.00   0.00  -0.00    -0.00  -0.00   0.00
   5   6     0.00   0.00   0.00    -0.00  -0.00  -0.00    -0.00   0.00  -0.00
   6   6    -0.00  -0.00  -0.00    -0.00  -0.00   0.00    -0.03   0.00  -0.00
   7   6     0.00   0.00  -0.00    -0.00   0.00  -0.00     0.07  -0.15   0.05
   8   6    -0.00  -0.00  -0.00     0.00  -0.00   0.00     0.10   0.14  -0.03
   9   6    -0.00  -0.00  -0.00    -0.00   0.00  -0.00    -0.08   0.00  -0.01
  10   6    -0.00  -0.00  -0.00     0.00  -0.00   0.00    -0.00   0.00  -0.00
  11   6     0.00   0.00   0.00    -0.02   0.00  -0.00     0.00  -0.00   0.00
  12   8    -0.00  -0.00  -0.00     0.00   0.00  -0.00    -0.00   0.00  -0.00
  13   8     0.00  -0.00   0.00    -0.10   0.20  -0.07     0.00  -0.00   0.00
  14   1    -0.28   0.06  -0.10     0.00  -0.00   0.00     0.00  -0.00   0.00
  15   1     0.10  -0.05   0.91     0.00  -0.00   0.00     0.00  -0.00  -0.00
  16   1     0.04  -0.12  -0.08     0.00  -0.00  -0.00     0.00  -0.00  -0.00
  17   1     0.00   0.00  -0.00     0.00  -0.00   0.00     0.12  -0.01   0.01
  18   1    -0.00  -0.00  -0.00     0.00  -0.00   0.00    -0.26   0.54  -0.19
  19   1    -0.00   0.00  -0.00    -0.00   0.00  -0.00    -0.37  -0.53   0.10
  20   1     0.00   0.00  -0.00     0.01  -0.00   0.00     0.31  -0.01   0.05
  21   1    -0.00   0.00  -0.00     0.44  -0.81   0.30    -0.00   0.00  -0.00
                     55                     56                     57
                        a                      a                      a 
 Frequencies --  3063.1508              3070.9700              3081.6281
 Red. masses --     1.8358                 1.8963                 1.8656
 Frc consts  --     0.0000                 0.0000                 0.0000
 IR Inten    --     6.5948                12.3984                12.4413
 Raman Activ --     0.0000                 0.0000                 0.0000
 Depolar     --     0.0000                 0.0000                 0.0000
 Atom AN      X      Y      Z        X      Y      Z        X      Y      Z
   1   6     0.00  -0.00   0.00     0.00   0.00  -0.00     0.00  -0.00  -0.00
   2   6     0.00   0.00   0.00    -0.00  -0.00  -0.00    -0.00  -0.00   0.00
   3   8    -0.00  -0.00  -0.00     0.00   0.00   0.00     0.00   0.00   0.00
   4   8     0.00  -0.00   0.00     0.00  -0.00   0.00    -0.00  -0.00   0.00
   5   6    -0.00   0.00  -0.00    -0.00   0.00  -0.00     0.00   0.01  -0.00
   6   6    -0.05   0.01  -0.01     0.05  -0.01   0.01     0.26  -0.02   0.03
   7   6     0.07  -0.15   0.05    -0.04   0.08  -0.03     0.04  -0.07   0.02
   8   6    -0.05  -0.07   0.01     0.11   0.15  -0.03    -0.02  -0.02   0.00
   9   6     0.18  -0.00   0.03     0.19  -0.01   0.03    -0.01   0.00  -0.00
  10   6     0.00  -0.00   0.00     0.00  -0.01   0.00    -0.00  -0.00  -0.00
  11   6     0.00   0.00   0.00     0.00   0.00   0.00     0.00   0.00  -0.00
  12   8    -0.00   0.00  -0.00    -0.00   0.00  -0.00    -0.00  -0.00   0.00
  13   8    -0.00   0.00  -0.00    -0.00   0.00  -0.00     0.00  -0.00   0.00
  14   1    -0.00   0.00  -0.00    -0.00   0.00  -0.00     0.00   0.00   0.00
  15   1    -0.00   0.00  -0.00    -0.00  -0.00   0.00     0.00  -0.00   0.00
  16   1    -0.00   0.00  -0.00    -0.00   0.00   0.00    -0.00   0.00   0.00
  17   1     0.18  -0.02   0.02    -0.18   0.02  -0.02    -0.91   0.07  -0.11
  18   1    -0.26   0.53  -0.18     0.13  -0.25   0.09    -0.11   0.22  -0.08
  19   1     0.18   0.25  -0.05    -0.36  -0.50   0.10     0.06   0.08  -0.02
  20   1    -0.64   0.01  -0.09    -0.63   0.02  -0.09     0.04  -0.00   0.01
  21   1     0.00  -0.01   0.00     0.00  -0.01   0.00     0.00  -0.00   0.00
