17
 energy: -25.235075302345 gnorm: 0.000291536458 xtb: 6.6.0 (conda-forge)
C            2.36084136815414        0.41451021138717        0.32793769997863
C            1.87077824434354       -0.87818945052717        0.40583482046321
C            0.55557060069640       -1.14349248719818        0.06851942678268
C           -0.28151933749553       -0.12033911909401       -0.35752076025801
C            0.21471518171362        1.17490850172173       -0.42784568690802
C            1.53021620156262        1.44019022449364       -0.08967979149386
C           -1.72287380734022       -0.41268252563084       -0.68574697952234
C           -2.52640038215759       -0.24126580079281        0.57620886514211
O           -3.16331060877297       -1.09928307593127        1.11525794857799
H            3.38691082564556        0.62210919795494        0.59239828447447
H            2.51336226326954       -1.68220568006986        0.73261976275940
H            0.17322399164917       -2.15165580900218        0.13442677482018
H           -0.42827874087807        1.97946038126759       -0.75590401329542
H            1.90740347278164        2.45032000011344       -0.15259017179692
H           -1.84357895820467       -1.43027178517679       -1.05875965726155
H           -2.09109986477786        0.29891362739568       -1.42749109408161
H           -2.45596045018929        0.77897358908898        1.00243457161907
