21
 energy: -38.985776752078 gnorm: 0.000856120702 xtb: 6.6.0 (conda-forge)
C            3.11944194403182        0.33132656735892       -0.03051166677651
N            1.82809770043811       -0.28234469197714        0.08602054907087
C            1.53102912683206       -1.56407203369649        0.35657599378754
N            0.23833995897263       -1.80984403043973        0.39109897929132
C           -0.34433882198622       -0.61973997399476        0.12734439533845
C            0.62197548820478        0.36032129213206       -0.06809724764822
C            0.28488096381086        1.72221455666897       -0.35864755872576
O            1.02705360031713        2.66156657102353       -0.55066094617278
N           -1.10147682455584        1.86363572063795       -0.39889429816399
C           -2.10281274559850        0.92269857708976       -0.21565114738862
O           -3.27110170835183        1.22339043587464       -0.28852419764140
N           -1.67895795268596       -0.35842708702140        0.05977272159292
C           -2.65278059060325       -1.41083207984751        0.25205528978852
H            3.89116609615601       -0.41183395304652        0.16018826444664
H            3.24601578903416        0.74685686220549       -1.03134477908231
H            3.20834551052028        1.14958953356042        0.68537551037975
H            2.27745306515853       -2.31397743872843        0.52781701156635
H           -1.44316038639168        2.79739984740669       -0.59824084639696
H           -2.19345527408696       -2.19083794712676        0.85369665389538
H           -2.96010960231604       -1.82469587116958       -0.70982491537270
H           -3.52560533690008       -0.99249485691011        0.75065223421152
