25
 energy: -32.624539803658 gnorm: 0.000200008309 xtb: 6.6.0 (conda-forge)
C            3.78890949812702        0.42445873071334        0.23885305581023
C            2.30580164919785        0.22888510816490        0.14555970402894
C            1.68804116800996       -0.81381980666699        0.81983088330325
C            0.31308719399011       -0.99576386422314        0.76084245879556
C           -0.48513028440108       -0.12460416546278        0.01431989368484
C            0.14412227572700        0.91442609178451       -0.65366472996902
C            1.51378957633009        1.09469070149303       -0.59434682635745
C           -1.97995068230758       -0.32363116476534       -0.05121856938045
C           -2.43374467984988       -0.57449721608057       -1.49047102166034
C           -2.71369291700967        0.87805542601473        0.54725545420372
O           -0.28292917687766       -2.02887025572870        1.42891857780482
H            4.29982623987811       -0.52564819159278        0.37830845116979
H            4.17243069333423        0.90293531200512       -0.65913500016910
H            4.02769409695166        1.06394214724493        1.08953218789255
H            2.28704266193037       -1.50242744940111        1.40424591035867
H           -0.44996057496000        1.60122629257161       -1.23750767088651
H            1.97189411103648        1.91441793418577       -1.12826084635941
H           -2.22280825274542       -1.20714580144607        0.54519277072031
H           -2.24087331389863        0.29431082464334       -2.11532674312063
H           -1.90285230636668       -1.42509502686874       -1.91203896589763
H           -3.50074450391954       -0.78525542874160       -1.51583718568149
H           -3.78638336759338        0.69688438229652        0.55502432259035
H           -2.52152959780588        1.77768482539211       -0.03267469500336
H           -2.38466417729842        1.05179490469797        1.56933185002229
H            0.39252467052095       -2.53665431023005        1.89346673410007
