      -----------------------------------------------------------      
     |                   =====================                   |     
     |                           x T B                           |     
     |                   =====================                   |     
     |                         S. Grimme                         |     
     |          Mulliken Center for Theoretical Chemistry        |     
     |                    University of Bonn                     |     
      -----------------------------------------------------------      

   * xtb version 6.6.0 (conda-forge) compiled by 'runner@Mac-1676020848589.local' on 2023-02-10

   xtb is free software: you can redistribute it and/or modify it under
   the terms of the GNU Lesser General Public License as published by
   the Free Software Foundation, either version 3 of the License, or
   (at your option) any later version.
   
   xtb is distributed in the hope that it will be useful,
   but WITHOUT ANY WARRANTY; without even the implied warranty of
   MERCHANTABILITY or FITNESS FOR A PARTICULAR PURPOSE.  See the
   GNU Lesser General Public License for more details.
   
   Cite this work as:
   * C. Bannwarth, E. Caldeweyher, S. Ehlert, A. Hansen, P. Pracht,
     J. Seibert, S. Spicher, S. Grimme, WIREs Comput. Mol. Sci., 2020, 11,
     e01493. DOI: 10.1002/wcms.1493
   
   for GFN2-xTB:
   * C. Bannwarth, S. Ehlert and S. Grimme., J. Chem. Theory Comput., 2019,
     15, 1652-1671. DOI: 10.1021/acs.jctc.8b01176
   for GFN1-xTB:
   * S. Grimme, C. Bannwarth, P. Shushkov, J. Chem. Theory Comput., 2017,
     13, 1989-2009. DOI: 10.1021/acs.jctc.7b00118
   for GFN0-xTB:
   * P. Pracht, E. Caldeweyher, S. Ehlert, S. Grimme, ChemRxiv, 2019, preprint.
     DOI: 10.26434/chemrxiv.8326202.v1
   for GFN-FF:
   * S. Spicher and S. Grimme, Angew. Chem. Int. Ed., 2020, 59, 15665-15673.
     DOI: 10.1002/anie.202004239
   
   for ALPB and GBSA implicit solvation:
   * S. Ehlert, M. Stahn, S. Spicher, S. Grimme, J. Chem. Theory Comput.,
     2021, 17, 4250-4261. DOI: 10.1021/acs.jctc.1c00471
   
   for DFT-D4:
   * E. Caldeweyher, C. Bannwarth and S. Grimme, J. Chem. Phys., 2017,
     147, 034112. DOI: 10.1063/1.4993215
   * E. Caldeweyher, S. Ehlert, A. Hansen, H. Neugebauer, S. Spicher,
     C. Bannwarth and S. Grimme, J. Chem. Phys., 2019, 150, 154122.
     DOI: 10.1063/1.5090222
   * E. Caldeweyher, J.-M. Mewes, S. Ehlert and S. Grimme, Phys. Chem. Chem. Phys.
     2020, 22, 8499-8512. DOI: 10.1039/D0CP00502A
   
   for sTDA-xTB:
   * S. Grimme and C. Bannwarth, J. Chem. Phys., 2016, 145, 054103.
     DOI: 10.1063/1.4959605
   
   in the mass-spec context:
   * V. Asgeirsson, C. Bauer and S. Grimme, Chem. Sci., 2017, 8, 4879.
     DOI: 10.1039/c7sc00601b
   * J. Koopman and S. Grimme, ACS Omega 2019, 4, 12, 15120-15133.
     DOI: 10.1021/acsomega.9b02011
   
   for metadynamics refer to:
   * S. Grimme, J. Chem. Theory Comput., 2019, 155, 2847-2862
     DOI: 10.1021/acs.jctc.9b00143
   
   for SPH calculations refer to:
   * S. Spicher and S. Grimme, J. Chem. Theory Comput., 2021, 17, 1701-1714
     DOI: 10.1021/acs.jctc.0c01306
   
   with help from (in alphabetical order)
   P. Atkinson, C. Bannwarth, F. Bohle, G. Brandenburg, E. Caldeweyher
   M. Checinski, S. Dohm, S. Ehlert, S. Ehrlich, I. Gerasimov, C. Hölzer
   A. Katbashev, J. Koopman, C. Lavigne, S. Lehtola, F. März, M. Müller,
   F. Musil, H. Neugebauer, J. Pisarek, C. Plett, P. Pracht, F. Pultar,
   J. Seibert, P. Shushkov, S. Spicher, M. Stahn, M. Steiner, T. Strunk,
   J. Stückrath, T. Rose, and J. Unsleber
   
 * started run on 2024/09/10 at 11:19:10.457     

           -------------------------------------------------
          |                Calculation Setup                |
           -------------------------------------------------

          program call               : xtb aspirin.xyz --gfn2 --hess --opt --alpb water
          coordinate file            : aspirin.xyz
          omp threads                :                     8

   ID    Z sym.   atoms
    1    6 C      1, 2, 5-11
    2    8 O      3, 4, 12, 13
    3    1 H      14-21

           -------------------------------------------------
          |                 G F N 2 - x T B                 |
           -------------------------------------------------

        Reference                      10.1021/acs.jctc.8b01176
      * Hamiltonian:
        H0-scaling (s, p, d)           1.850000    2.230000    2.230000
        zeta-weighting                 0.500000
      * Dispersion:
        s8                             2.700000
        a1                             0.520000
        a2                             5.000000
        s9                             5.000000
      * Repulsion:
        kExp                           1.500000    1.000000
        rExp                           1.000000
      * Coulomb:
        alpha                          2.000000
        third order                    shell-resolved
        anisotropic                    true
        a3                             3.000000
        a5                             4.000000
        cn-shift                       1.200000
        cn-exp                         4.000000
        max-rad                        5.000000

      * Solvation model:               ALPB
        Solvent                        water
        Parameter file                 internal GFN2-xTB/ALPB
        Dielectric constant                8.0200E+01
        Reference state                gsolv [1 M gas/solution]
        Free energy shift                  1.0808E-03 Eh       6.7819E-01 kcal/mol
        Temperature                        2.9815E+02 K
        Density                            1.0000E+00 kg/L
        Solvent mass                       1.8000E+01 g/mol
        Interaction kernel             P16
        Born radius scaling (c1)           1.4744E+00
        Born radii integrator          GBOBC
        Born offset                        0.0000E+00 a0       0.0000E+00 AA
        H-bond correction              true
        Ion screening                  false
        Surface tension                    1.0000E-05 Eh       1.5569E+01 dyn/cm
        Grid points                               230 per atom

          ...................................................
          :                      SETUP                      :
          :.................................................:
          :  # basis functions                  60          :
          :  # atomic orbitals                  60          :
          :  # shells                           34          :
          :  # electrons                        68          :
          :  max. iterations                   250          :
          :  Hamiltonian                  GFN2-xTB          :
          :  restarted?                      false          :
          :  GBSA solvation                   true          :
          :  PC potential                    false          :
          :  electronic temp.          300.0000000     K    :
          :  accuracy                    1.0000000          :
          :  -> integral cutoff          0.2500000E+02      :
          :  -> integral neglect         0.1000000E-07      :
          :  -> SCF convergence          0.1000000E-05 Eh   :
          :  -> wf. convergence          0.1000000E-03 e    :
          :  Broyden damping             0.4000000          :
          ...................................................

 iter      E             dE          RMSdq      gap      omega  full diag
   1    -39.9425397 -0.399425E+02  0.561E+00    3.16       0.0  T
   2    -40.0269280 -0.843883E-01  0.289E+00    3.03       1.0  T
   3    -40.0291781 -0.225009E-02  0.157E+00    3.31       1.0  T
   4    -40.0382797 -0.910156E-02  0.294E-01    3.23       1.0  T
   5    -40.0390768 -0.797135E-03  0.110E-01    3.21       1.0  T
   6    -40.0391722 -0.953779E-04  0.496E-02    3.21       1.0  T
   7    -40.0391765 -0.425800E-05  0.173E-02    3.21       1.3  T
   8    -40.0391784 -0.192881E-05  0.549E-03    3.21       4.0  T
   9    -40.0391786 -0.185195E-06  0.320E-03    3.21       6.8  T
  10    -40.0391786 -0.600096E-07  0.122E-03    3.21      17.9  T
  11    -40.0391786 -0.541755E-08  0.400E-04    3.21      54.6  T
  12    -40.0391786 -0.481187E-09  0.206E-04    3.21     106.2  T

   *** convergence criteria satisfied after 12 iterations ***

         #    Occupation            Energy/Eh            Energy/eV
      -------------------------------------------------------------
         1        2.0000           -0.7471375             -20.3306
       ...           ...                  ...                  ...
        28        2.0000           -0.4723678             -12.8538
        29        2.0000           -0.4597533             -12.5105
        30        2.0000           -0.4504603             -12.2576
        31        2.0000           -0.4339825             -11.8093
        32        2.0000           -0.4291017             -11.6765
        33        2.0000           -0.4238506             -11.5336
        34        2.0000           -0.4159952             -11.3198 (HOMO)
        35                         -0.2981744              -8.1137 (LUMO)
        36                         -0.2729447              -7.4272
        37                         -0.2413292              -6.5669
        38                         -0.2119169              -5.7666
        39                         -0.1146422              -3.1196
       ...                                ...                  ...
        60                          0.6008898              16.3510
      -------------------------------------------------------------
                  HL-Gap            0.1178208 Eh            3.2061 eV
             Fermi-level           -0.3570848 Eh           -9.7168 eV

 SCC (total)                   0 d,  0 h,  0 min,  0.024 sec
 SCC setup                      ...        0 min,  0.004 sec ( 17.270%)
 Dispersion                     ...        0 min,  0.001 sec (  3.018%)
 classical contributions        ...        0 min,  0.000 sec (  0.936%)
 integral evaluation            ...        0 min,  0.002 sec (  7.648%)
 iterations                     ...        0 min,  0.015 sec ( 60.201%)
 molecular gradient             ...        0 min,  0.002 sec (  8.927%)
 printout                       ...        0 min,  0.000 sec (  1.921%)

         :::::::::::::::::::::::::::::::::::::::::::::::::::::
         ::                     SUMMARY                     ::
         :::::::::::::::::::::::::::::::::::::::::::::::::::::
         :: total energy             -39.621027871801 Eh    ::
         :: total w/o Gsasa/hb       -39.612274620007 Eh    ::
         :: gradient norm              0.138856523471 Eh/a0 ::
         :: HOMO-LUMO gap              3.206067480044 eV    ::
         ::.................................................::
         :: SCC energy               -40.039178637696 Eh    ::
         :: -> isotropic ES            0.130919695794 Eh    ::
         :: -> anisotropic ES         -0.006260450697 Eh    ::
         :: -> anisotropic XC          0.008883322952 Eh    ::
         :: -> dispersion             -0.017849629524 Eh    ::
         :: -> Gsolv                  -0.031595306241 Eh    ::
         ::    -> Gelec               -0.022842054447 Eh    ::
         ::    -> Gsasa                0.003271546441 Eh    ::
         ::    -> Ghb                 -0.013105557933 Eh    ::
         ::    -> Gshift               0.001080759698 Eh    ::
         :: repulsion energy           0.418115167182 Eh    ::
         :: add. restraining           0.000000000000 Eh    ::
         :: total charge               0.000000000000 e     ::
         :::::::::::::::::::::::::::::::::::::::::::::::::::::

           ------------------------------------------------- 
          |                Numerical Hessian                |
           ------------------------------------------------- 
step length          :   0.00500
SCC accuracy         :   0.30000
Hessian scale factor :   1.00000
frozen atoms in %    :   0.00000    0
RMS gradient         :   0.13886 !! INCOMPLETELY OPTIMIZED GEOMETRY !!
estimated CPU  time      0.02 min
estimated wall time      0.00 min

writing file <hessian>.

 projected vibrational frequencies (cm⁻¹)
eigval :       -0.00    -0.00    -0.00     0.00     0.00     0.00
eigval :      135.41   141.57   148.84   168.14   196.58   226.16
eigval :      283.52   307.78   321.70   392.72   405.30   433.96
eigval :      497.45   512.11   542.01   614.46   640.91   645.91
eigval :      663.88   729.78   745.47   770.64   782.24   810.02
eigval :      823.70   890.30   931.28   935.69   940.20  1010.35
eigval :     1040.70  1070.50  1078.07  1093.93  1124.99  1154.45
eigval :     1176.84  1189.53  1225.03  1247.40  1381.82  1391.32
eigval :     1405.34  1420.61  1427.86  1437.33  1463.07  1517.60
eigval :     1526.59  2815.00  2822.67  2831.70  2868.31  3057.08
eigval :     3063.15  3070.97  3081.63
           -------------------------------------------------
          |                Property Printout                |
           -------------------------------------------------

    * Orbital Energies and Occupations

         #    Occupation            Energy/Eh            Energy/eV
      -------------------------------------------------------------
         1        2.0000           -0.7471380             -20.3307
       ...           ...                  ...                  ...
        22        2.0000           -0.5081564             -13.8276
        23        2.0000           -0.4933764             -13.4255
        24        2.0000           -0.4914246             -13.3723
        25        2.0000           -0.4831623             -13.1475
        26        2.0000           -0.4792472             -13.0410
        27        2.0000           -0.4746927             -12.9170
        28        2.0000           -0.4723697             -12.8538
        29        2.0000           -0.4597549             -12.5106
        30        2.0000           -0.4504615             -12.2577
        31        2.0000           -0.4339832             -11.8093
        32        2.0000           -0.4291037             -11.6765
        33        2.0000           -0.4238521             -11.5336
        34        2.0000           -0.4159965             -11.3198 (HOMO)
        35                         -0.2981767              -8.1138 (LUMO)
        36                         -0.2729452              -7.4272
        37                         -0.2413304              -6.5669
        38                         -0.2119196              -5.7666
        39                         -0.1146442              -3.1196
        40                         -0.0540745              -1.4714
        41                         -0.0345173              -0.9393
        42                          0.0958621               2.6085
        43                          0.1080129               2.9392
        44                          0.1285595               3.4983
        45                          0.1368860               3.7249
       ...                                ...                  ...
        60                          0.6008879              16.3510
      -------------------------------------------------------------
                  HL-Gap            0.1178197 Eh            3.2060 eV
             Fermi-level           -0.3570866 Eh           -9.7168 eV

     #   Z          covCN         q      C6AA      α(0)
     1   6 C        3.743    -0.160    23.685     6.943
     2   6 C        2.688     0.358    20.921     7.486
     3   8 O        0.856    -0.479    23.326     6.475
     4   8 O        1.702    -0.263    18.352     5.784
     5   6 C        2.837     0.159    24.552     8.120
     6   6 C        2.909    -0.042    29.031     8.835
     7   6 C        2.909    -0.022    28.558     8.763
     8   6 C        2.909    -0.035    28.869     8.810
     9   6 C        2.914    -0.023    28.591     8.768
    10   6 C        2.958    -0.019    28.484     8.754
    11   6 C        2.691     0.352    21.016     7.503
    12   8 O        0.856    -0.496    23.696     6.526
    13   8 O        1.647    -0.441    21.667     6.283
    14   1 H        0.922     0.117     1.636     2.001
    15   1 H        0.922     0.102     1.766     2.079
    16   1 H        0.922     0.129     1.541     1.942
    17   1 H        0.925     0.072     2.068     2.249
    18   1 H        0.925     0.086     1.923     2.168
    19   1 H        0.925     0.085     1.927     2.171
    20   1 H        0.925     0.093     1.848     2.126
    21   1 H        0.796     0.426     0.440     1.043

 Mol. C6AA /au·bohr⁶  :       5514.991396
 Mol. C8AA /au·bohr⁸  :     132410.910536
 Mol. α(0) /au        :        114.827248


Wiberg/Mayer (AO) data.
largest (>0.10) Wiberg bond orders for each atom

 ---------------------------------------------------------------------------
     #   Z sym  total        # sym  WBO       # sym  WBO       # sym  WBO
 ---------------------------------------------------------------------------
     1   6 C    3.973 --     2 C    1.035    15 H    0.970    14 H    0.959
                            16 H    0.928
     2   6 C    3.890 --     3 O    1.699     4 O    1.078     1 C    1.035
     3   8 O    1.968 --     2 C    1.699     4 O    0.145
     4   8 O    2.350 --     2 C    1.078     5 C    0.993     3 O    0.145
     5   6 C    3.913 --     6 C    1.394    10 C    1.318     4 O    0.993
     6   6 C    3.985 --     7 C    1.438     5 C    1.394    17 H    0.965
                             9 C    0.104
     7   6 C    3.983 --     6 C    1.438     8 C    1.425    18 H    0.965
     8   6 C    3.985 --     9 C    1.454     7 C    1.425    19 H    0.965
     9   6 C    3.980 --     8 C    1.454    10 C    1.373    20 H    0.962
                             6 C    0.104
    10   6 C    3.980 --     9 C    1.373     5 C    1.318    11 C    1.050
    11   6 C    3.913 --    12 O    1.664    13 O    1.137    10 C    1.050
    12   8 O    1.957 --    11 C    1.664    13 O    0.165
    13   8 O    2.139 --    11 C    1.137    21 H    0.794    12 O    0.165
    14   1 H    0.985 --     1 C    0.959
    15   1 H    0.990 --     1 C    0.970
    16   1 H    0.983 --     1 C    0.928
    17   1 H    0.994 --     6 C    0.965
    18   1 H    0.992 --     7 C    0.965
    19   1 H    0.992 --     8 C    0.965
    20   1 H    0.991 --     9 C    0.962
    21   1 H    0.818 --    13 O    0.794
 ---------------------------------------------------------------------------

Topologies differ in total number of bonds
Writing topology from bond orders to xtbtopo.mol

molecular dipole:
                 x           y           z       tot (Debye)
 q only:        0.730       1.015       0.699
   full:        0.769       0.820       0.799       3.505
molecular quadrupole (traceless):
                xx          xy          yy          xz          yz          zz
 q only:       10.526       6.889       4.331      -4.698      -3.130     -14.857
  q+dip:       11.899       3.282       4.894      -4.396      -3.768     -16.793
   full:       10.143       3.238       3.883      -5.347      -2.180     -14.025

           -------------------------------------------------
          |               Frequency Printout                |
           -------------------------------------------------
 projected vibrational frequencies (cm⁻¹)
eigval :       -0.00    -0.00    -0.00     0.00     0.00     0.00
eigval :      135.41   141.57   148.84   168.14   196.58   226.16
eigval :      283.52   307.78   321.70   392.72   405.30   433.96
eigval :      497.45   512.11   542.01   614.46   640.91   645.91
eigval :      663.88   729.78   745.47   770.64   782.24   810.02
eigval :      823.70   890.30   931.28   935.69   940.20  1010.35
eigval :     1040.70  1070.50  1078.07  1093.93  1124.99  1154.45
eigval :     1176.84  1189.53  1225.03  1247.40  1381.82  1391.32
eigval :     1405.34  1420.61  1427.86  1437.33  1463.07  1517.60
eigval :     1526.59  2815.00  2822.67  2831.70  2868.31  3057.08
eigval :     3063.15  3070.97  3081.63
 reduced masses (amu)
   1: 12.51   2: 13.24   3: 13.00   4: 11.76   5: 12.47   6: 13.03   7: 10.63   8: 11.84
   9: 14.38  10: 14.87  11: 12.51  12: 13.49  13: 11.37  14: 11.99  15: 13.92  16:  1.48
  17: 12.68  18:  9.89  19: 12.79  20: 10.27  21: 12.30  22: 12.39  23: 11.98  24: 10.34
  25: 10.60  26: 11.81  27: 10.03  28:  3.47  29: 12.98  30:  7.49  31: 11.70  32:  3.44
Molecule has no symmetry elements
It seems to be the C1 point group
  33:  3.94  34:  3.67  35: 12.34  36:  9.92  37:  5.05  38:  8.80  39:  8.47  40:  6.13
  41:  6.31  42:  6.08  43:  2.00  44:  8.26  45:  5.87  46: 10.17  47:  8.47  48:  3.28
  49:  9.11  50:  3.98  51:  6.86  52: 12.54  53:  5.58  54: 11.29  55: 11.31  56:  1.87
  57:  1.78  58:  1.50  59:  1.86  60:  1.78  61:  1.84  62:  1.90  63:  1.87
 IR intensities (km·mol⁻¹)
   1:  0.01   2:  0.31   3:  0.22   4:  0.38   5:  0.17   6:  0.21   7:  6.93   8:  5.80
   9:  5.12  10:  1.12  11:  3.73  12:  3.45  13:  0.99  14:  2.68  15:  0.11  16:  2.91
  17:  8.64  18:  0.46  19: 26.65  20:  9.20  21:  0.16  22: 41.66  23: 27.49  24: 24.62
  25:  6.97  26: 10.80  27: 32.25  28:274.72  29: 41.11  30:133.60  31:534.69  32:  6.59
  33:  1.67  34:  7.67  35:800.56  36:357.32  37: 25.64  38:156.82  39: 58.17  40:704.49
  41:  9.94  42:  0.66  43: 16.45  44:120.13  45: 12.16  46:  0.29  47:  7.46  48: 88.17
  49: 30.12  50:131.85  51:140.42  52:930.66  53:145.43  54: 59.06  55: 22.29  56:  4.59
  57:  2.47  58:  2.94  59:386.69  60:  1.49  61:  6.59  62: 12.40  63: 12.44
 Raman intensities (amu)
   1:  0.00   2:  0.00   3:  0.00   4:  0.00   5:  0.00   6:  0.00   7:  0.00   8:  0.00
   9:  0.00  10:  0.00  11:  0.00  12:  0.00  13:  0.00  14:  0.00  15:  0.00  16:  0.00
  17:  0.00  18:  0.00  19:  0.00  20:  0.00  21:  0.00  22:  0.00  23:  0.00  24:  0.00
  25:  0.00  26:  0.00  27:  0.00  28:  0.00  29:  0.00  30:  0.00  31:  0.00  32:  0.00
  33:  0.00  34:  0.00  35:  0.00  36:  0.00  37:  0.00  38:  0.00  39:  0.00  40:  0.00
  41:  0.00  42:  0.00  43:  0.00  44:  0.00  45:  0.00  46:  0.00  47:  0.00  48:  0.00
  49:  0.00  50:  0.00  51:  0.00  52:  0.00  53:  0.00  54:  0.00  55:  0.00  56:  0.00
  57:  0.00  58:  0.00  59:  0.00  60:  0.00  61:  0.00  62:  0.00  63:  0.00
 output can be read by thermo (or use thermo option).
 writing <g98.out> molden fake output.
 recommended (thermochemical) frequency scaling factor: 1.0
           -------------------------------------------------
          |             Thermodynamic Functions             |
           -------------------------------------------------

c1  symmetry found (for desy threshold:  0.10E+00) used in thermo

          ...................................................
          :                      SETUP                      :
          :.................................................:
          :  # frequencies                          57      :
          :  # imaginary freq.                       0      :
          :  linear?                             false      :
          :  only rotor calc.                    false      :
          :  symmetry                               c1      :
          :  rotational number                       1      :
          :  scaling factor                  1.0000000      :
          :  rotor cutoff                   50.0000000 cm⁻¹ :
          :  imag. cutoff                  -20.0000000 cm⁻¹ :
          :.................................................:

    mode    ω/cm⁻¹     T·S(HO)/kcal·mol⁻¹    T·S(FR)/kcal·mol⁻¹   T·S(vib)
   ------------------------------------------------------------------------
       1    135.41    -0.85501 ( 98.17%)    -0.76136 (  1.83%)    -0.85330
       2    141.57    -0.82962 ( 98.47%)    -0.74819 (  1.53%)    -0.82837
       3    148.84    -0.80112 ( 98.74%)    -0.73335 (  1.26%)    -0.80027
       4    168.14    -0.73230 ( 99.22%)    -0.69723 (  0.78%)    -0.73202
       5    196.58    -0.64544 ( 99.58%)    -0.65094 (  0.42%)    -0.64546
       6    226.16    -0.56924 ( 99.76%)    -0.60943 (  0.24%)    -0.56934
       7    283.52    -0.45091 ( 99.90%)    -0.54248 (  0.10%)    -0.45100
   ------------------------------------------------------------------------

   temp. (K)  partition function   enthalpy   heat capacity  entropy
                                   cal/mol     cal/K/mol   cal/K/mol   J/K/mol
 298.15  VIB   251.                 5040.787     37.704     27.873
         ROT  0.159E+07              888.752      2.981     31.354
         INT  0.398E+09             5929.540     40.685     59.228
         TR   0.234E+28             1481.254      4.968     41.454
         TOT                        7410.7935    45.6527   100.6814   421.2509

       T/K    H(0)-H(T)+PV         H(T)/Eh          T*S/Eh         G(T)/Eh
   ------------------------------------------------------------------------
    298.15    0.118099E-01    0.159051E+00    0.478370E-01    0.111214E+00
   ------------------------------------------------------------------------

         :::::::::::::::::::::::::::::::::::::::::::::::::::::
         ::                  THERMODYNAMIC                  ::
         :::::::::::::::::::::::::::::::::::::::::::::::::::::
         :: total free energy         -39.509813420546 Eh   ::
         ::.................................................::
         :: total energy              -39.621027873054 Eh   ::
         :: zero point energy           0.147241575439 Eh   ::
         :: G(RRHO) w/o ZPVE           -0.036027122931 Eh   ::
         :: G(RRHO) contrib.            0.111214452508 Eh   ::
         :::::::::::::::::::::::::::::::::::::::::::::::::::::

           -------------------------------------------------
          | TOTAL ENERGY              -39.621027873054 Eh   |
          | TOTAL ENTHALPY            -39.461976446466 Eh   |
          | TOTAL FREE ENERGY         -39.509813420546 Eh   |
          | GRADIENT NORM               0.138856971572 Eh/α |
          | HOMO-LUMO GAP               3.206037774498 eV   |
           -------------------------------------------------
########################################################################
[WARNING] Runtime exception occurred
-3- hessian_numhess: Hessian on incompletely optimized geometry!
-2- restart_readRestart: Dimension missmatch in restart file.
-1- restart_readRestart: Number of electron missmatch in restart file.
########################################################################

------------------------------------------------------------------------
 * finished run on 2024/09/10 at 11:19:20.029     
------------------------------------------------------------------------
 total:
 * wall-time:     0 d,  0 h,  0 min,  9.571 sec
 *  cpu-time:     0 d,  0 h,  0 min,  3.402 sec
 * ratio c/w:     0.355 speedup
 SCF:
 * wall-time:     0 d,  0 h,  0 min,  0.026 sec
 *  cpu-time:     0 d,  0 h,  0 min,  0.156 sec
 * ratio c/w:     5.961 speedup
 analytical hessian:
 * wall-time:     0 d,  0 h,  0 min,  0.233 sec
 *  cpu-time:     0 d,  0 h,  0 min,  1.730 sec
 * ratio c/w:     7.411 speedup

