      -----------------------------------------------------------      
     |                   =====================                   |     
     |                           x T B                           |     
     |                   =====================                   |     
     |                         S. Grimme                         |     
     |          Mulliken Center for Theoretical Chemistry        |     
     |                    University of Bonn                     |     
      -----------------------------------------------------------      

   * xtb version 6.6.0 (conda-forge) compiled by 'runner@Mac-1676020848589.local' on 2023-02-10

   xtb is free software: you can redistribute it and/or modify it under
   the terms of the GNU Lesser General Public License as published by
   the Free Software Foundation, either version 3 of the License, or
   (at your option) any later version.
   
   xtb is distributed in the hope that it will be useful,
   but WITHOUT ANY WARRANTY; without even the implied warranty of
   MERCHANTABILITY or FITNESS FOR A PARTICULAR PURPOSE.  See the
   GNU Lesser General Public License for more details.
   
   Cite this work as:
   * C. Bannwarth, E. Caldeweyher, S. Ehlert, A. Hansen, P. Pracht,
     J. Seibert, S. Spicher, S. Grimme, WIREs Comput. Mol. Sci., 2020, 11,
     e01493. DOI: 10.1002/wcms.1493
   
   for GFN2-xTB:
   * C. Bannwarth, S. Ehlert and S. Grimme., J. Chem. Theory Comput., 2019,
     15, 1652-1671. DOI: 10.1021/acs.jctc.8b01176
   for GFN1-xTB:
   * S. Grimme, C. Bannwarth, P. Shushkov, J. Chem. Theory Comput., 2017,
     13, 1989-2009. DOI: 10.1021/acs.jctc.7b00118
   for GFN0-xTB:
   * P. Pracht, E. Caldeweyher, S. Ehlert, S. Grimme, ChemRxiv, 2019, preprint.
     DOI: 10.26434/chemrxiv.8326202.v1
   for GFN-FF:
   * S. Spicher and S. Grimme, Angew. Chem. Int. Ed., 2020, 59, 15665-15673.
     DOI: 10.1002/anie.202004239
   
   for ALPB and GBSA implicit solvation:
   * S. Ehlert, M. Stahn, S. Spicher, S. Grimme, J. Chem. Theory Comput.,
     2021, 17, 4250-4261. DOI: 10.1021/acs.jctc.1c00471
   
   for DFT-D4:
   * E. Caldeweyher, C. Bannwarth and S. Grimme, J. Chem. Phys., 2017,
     147, 034112. DOI: 10.1063/1.4993215
   * E. Caldeweyher, S. Ehlert, A. Hansen, H. Neugebauer, S. Spicher,
     C. Bannwarth and S. Grimme, J. Chem. Phys., 2019, 150, 154122.
     DOI: 10.1063/1.5090222
   * E. Caldeweyher, J.-M. Mewes, S. Ehlert and S. Grimme, Phys. Chem. Chem. Phys.
     2020, 22, 8499-8512. DOI: 10.1039/D0CP00502A
   
   for sTDA-xTB:
   * S. Grimme and C. Bannwarth, J. Chem. Phys., 2016, 145, 054103.
     DOI: 10.1063/1.4959605
   
   in the mass-spec context:
   * V. Asgeirsson, C. Bauer and S. Grimme, Chem. Sci., 2017, 8, 4879.
     DOI: 10.1039/c7sc00601b
   * J. Koopman and S. Grimme, ACS Omega 2019, 4, 12, 15120-15133.
     DOI: 10.1021/acsomega.9b02011
   
   for metadynamics refer to:
   * S. Grimme, J. Chem. Theory Comput., 2019, 155, 2847-2862
     DOI: 10.1021/acs.jctc.9b00143
   
   for SPH calculations refer to:
   * S. Spicher and S. Grimme, J. Chem. Theory Comput., 2021, 17, 1701-1714
     DOI: 10.1021/acs.jctc.0c01306
   
   with help from (in alphabetical order)
   P. Atkinson, C. Bannwarth, F. Bohle, G. Brandenburg, E. Caldeweyher
   M. Checinski, S. Dohm, S. Ehlert, S. Ehrlich, I. Gerasimov, C. Hölzer
   A. Katbashev, J. Koopman, C. Lavigne, S. Lehtola, F. März, M. Müller,
   F. Musil, H. Neugebauer, J. Pisarek, C. Plett, P. Pracht, F. Pultar,
   J. Seibert, P. Shushkov, S. Spicher, M. Stahn, M. Steiner, T. Strunk,
   J. Stückrath, T. Rose, and J. Unsleber
   
 * started run on 2024/09/13 at 15:43:25.977     

           -------------------------------------------------
          |                Calculation Setup                |
           -------------------------------------------------

          program call               : xtb quinoline.xyz --opt --gfn2
          coordinate file            : quinoline.xyz
          omp threads                :                     8

   ID    Z sym.   atoms
    1    6 C      1-9
    2    7 N      10
    3    1 H      11-17

           -------------------------------------------------
          |                 G F N 2 - x T B                 |
           -------------------------------------------------

        Reference                      10.1021/acs.jctc.8b01176
      * Hamiltonian:
        H0-scaling (s, p, d)           1.850000    2.230000    2.230000
        zeta-weighting                 0.500000
      * Dispersion:
        s8                             2.700000
        a1                             0.520000
        a2                             5.000000
        s9                             5.000000
      * Repulsion:
        kExp                           1.500000    1.000000
        rExp                           1.000000
      * Coulomb:
        alpha                          2.000000
        third order                    shell-resolved
        anisotropic                    true
        a3                             3.000000
        a5                             4.000000
        cn-shift                       1.200000
        cn-exp                         4.000000
        max-rad                        5.000000


          ...................................................
          :                      SETUP                      :
          :.................................................:
          :  # basis functions                  47          :
          :  # atomic orbitals                  47          :
          :  # shells                           27          :
          :  # electrons                        48          :
          :  max. iterations                   250          :
          :  Hamiltonian                  GFN2-xTB          :
          :  restarted?                      false          :
          :  GBSA solvation                  false          :
          :  PC potential                    false          :
          :  electronic temp.          300.0000000     K    :
          :  accuracy                    1.0000000          :
          :  -> integral cutoff          0.2500000E+02      :
          :  -> integral neglect         0.1000000E-07      :
          :  -> SCF convergence          0.1000000E-05 Eh   :
          :  -> wf. convergence          0.1000000E-03 e    :
          :  Broyden damping             0.4000000          :
          ...................................................

 iter      E             dE          RMSdq      gap      omega  full diag
   1    -26.1706993 -0.261707E+02  0.478E+00    2.46       0.0  T
   2    -26.1848874 -0.141881E-01  0.288E+00    2.29       1.0  T
   3    -26.1741761  0.107113E-01  0.997E-01    2.25       1.0  T
   4    -26.1868274 -0.126513E-01  0.304E-01    2.04       1.0  T
   5    -26.1879770 -0.114960E-02  0.138E-01    2.10       1.0  T
   6    -26.1881856 -0.208632E-03  0.370E-02    2.09       1.0  T
   7    -26.1881919 -0.625895E-05  0.218E-02    2.09       1.1  T
   8    -26.1881937 -0.177880E-05  0.453E-03    2.09       5.4  T
   9    -26.1881940 -0.323997E-06  0.144E-03    2.09      16.9  T
  10    -26.1881940 -0.173759E-08  0.677E-04    2.09      35.8  T
  11    -26.1881940 -0.397347E-08  0.222E-04    2.09     109.0  T

   *** convergence criteria satisfied after 11 iterations ***

         #    Occupation            Energy/Eh            Energy/eV
      -------------------------------------------------------------
         1        2.0000           -0.6587310             -17.9250
       ...           ...                  ...                  ...
        18        2.0000           -0.4622277             -12.5779
        19        2.0000           -0.4422797             -12.0350
        20        2.0000           -0.4381897             -11.9237
        21        2.0000           -0.4286704             -11.6647
        22        2.0000           -0.4109941             -11.1837
        23        2.0000           -0.3894780             -10.5982
        24        2.0000           -0.3603786              -9.8064 (HOMO)
        25                         -0.2836090              -7.7174 (LUMO)
        26                         -0.2363793              -6.4322
        27                         -0.2071200              -5.6360
        28                         -0.1637695              -4.4564
        29                         -0.0704676              -1.9175
       ...                                ...                  ...
        47                          0.6676386              18.1674
      -------------------------------------------------------------
                  HL-Gap            0.0767696 Eh            2.0890 eV
             Fermi-level           -0.3219938 Eh           -8.7619 eV

 SCC (total)                   0 d,  0 h,  0 min,  0.018 sec
 SCC setup                      ...        0 min,  0.002 sec ( 13.595%)
 Dispersion                     ...        0 min,  0.001 sec (  4.962%)
 classical contributions        ...        0 min,  0.001 sec (  3.507%)
 integral evaluation            ...        0 min,  0.001 sec (  8.154%)
 iterations                     ...        0 min,  0.011 sec ( 58.919%)
 molecular gradient             ...        0 min,  0.001 sec (  7.585%)
 printout                       ...        0 min,  0.001 sec (  3.179%)

         :::::::::::::::::::::::::::::::::::::::::::::::::::::
         ::                     SUMMARY                     ::
         :::::::::::::::::::::::::::::::::::::::::::::::::::::
         :: total energy             -25.737941571978 Eh    ::
         :: gradient norm              0.095131097990 Eh/a0 ::
         :: HOMO-LUMO gap              2.089007913247 eV    ::
         ::.................................................::
         :: SCC energy               -26.188194010321 Eh    ::
         :: -> isotropic ES            0.008900260587 Eh    ::
         :: -> anisotropic ES          0.003136409207 Eh    ::
         :: -> anisotropic XC          0.022967236167 Eh    ::
         :: -> dispersion             -0.015607071940 Eh    ::
         :: repulsion energy           0.450226756932 Eh    ::
         :: add. restraining           0.000000000000 Eh    ::
         :: total charge               0.000000000000 e     ::
         :::::::::::::::::::::::::::::::::::::::::::::::::::::

      ----------------------------------------------------------- 
     |                   =====================                   |
     |                        A N C O P T                        |
     |                   =====================                   |
     |               Approximate Normal Coordinate               |
     |                Rational Function Optimizer                |
      ----------------------------------------------------------- 

          ...................................................
          :                      SETUP                      :
          :.................................................:
          :   optimization level            normal          :
          :   max. optcycles                   200          :
          :   ANC micro-cycles                  20          :
          :   degrees of freedom                45          :
          :.................................................:
          :   RF solver                   davidson          :
          :   write xtbopt.log                true          :
          :   linear?                        false          :
          :   energy convergence         0.5000000E-05 Eh   :
          :   grad. convergence          0.1000000E-02 Eh/α :
          :   maxmium RF displ.          1.0000000          :
          :   Hlow (freq-cutoff)         0.1000000E-01      :
          :   Hmax (freq-cutoff)         5.0000000          :
          :   S6 in model hess.         20.0000000          :
          ...................................................

generating ANC from model Hessian ...
Using Lindh-Hessian (1995)
 Shifting diagonal of input Hessian by    4.0205095454477610E-003
 Lowest  eigenvalues of input Hessian
    0.000000    0.000000    0.000000    0.000000    0.000000    0.000000
    0.010000    0.010526    0.020011    0.022984    0.024834    0.035742
    0.037247    0.055232    0.067663    0.068676    0.079191    0.087134
 Highest eigenvalues
    1.759868    1.786941    1.824299    1.923210    2.013919    2.117018


........................................................................
.............................. CYCLE    1 ..............................
........................................................................

 iter      E             dE          RMSdq      gap      omega  full diag
   1    -26.1881940 -0.261882E+02  0.840E-05    2.09       0.0  T
   2    -26.1881940 -0.216822E-10  0.547E-05    2.09     443.3  T
   3    -26.1881940 -0.167262E-10  0.337E-05    2.09     719.6  T
     SCC iter.                  ...        0 min,  0.001 sec
     gradient                   ...        0 min,  0.001 sec
 * total energy  :   -25.7379416 Eh     change       -0.4782201E-09 Eh
   gradient norm :     0.0951321 Eh/α   predicted     0.0000000E+00 (-100.00%)
   displ. norm   :     0.2148355 α      lambda       -0.1020557E-01
   maximum displ.:     0.1250927 α      in ANC's #10, #6, #22, ...

........................................................................
.............................. CYCLE    2 ..............................
........................................................................

 iter      E             dE          RMSdq      gap      omega  full diag
   1    -26.2157446 -0.262157E+02  0.283E-01    2.26       0.0  T
   2    -26.2158729 -0.128275E-03  0.184E-01    2.32       1.0  T
   3    -26.2158280  0.448850E-04  0.791E-02    2.29       1.0  T
   4    -26.2159040 -0.760543E-04  0.276E-02    2.31       1.0  T
   5    -26.2159158 -0.117197E-04  0.810E-03    2.31       3.0  T
   6    -26.2159160 -0.275815E-06  0.351E-03    2.31       6.9  T
   7    -26.2159161 -0.246052E-07  0.128E-03    2.31      18.9  T
   8    -26.2159161 -0.107721E-07  0.421E-04    2.31      57.6  T
   9    -26.2159161 -0.134744E-08  0.122E-04    2.31     198.5  T
     SCC iter.                  ...        0 min,  0.004 sec
     gradient                   ...        0 min,  0.001 sec
 * total energy  :   -25.7447690 Eh     change       -0.6827436E-02 Eh
   gradient norm :     0.0366408 Eh/α   predicted    -0.5338299E-02 ( -21.81%)
   displ. norm   :     0.1115419 α      lambda       -0.1866543E-02
   maximum displ.:     0.0714739 α      in ANC's #6, #10, #12, ...

........................................................................
.............................. CYCLE    3 ..............................
........................................................................

 iter      E             dE          RMSdq      gap      omega  full diag
   1    -26.2246350 -0.262246E+02  0.138E-01    2.39       0.0  T
   2    -26.2246758 -0.407948E-04  0.932E-02    2.42       1.0  T
   3    -26.2246706  0.520414E-05  0.407E-02    2.41       1.0  T
   4    -26.2246862 -0.156375E-04  0.140E-02    2.42       1.7  T
   5    -26.2246892 -0.294632E-05  0.400E-03    2.42       6.1  T
   6    -26.2246893 -0.804161E-07  0.178E-03    2.42      13.6  T
   7    -26.2246893 -0.554716E-08  0.660E-04    2.42      36.8  T
   8    -26.2246893 -0.278401E-08  0.227E-04    2.42     106.7  T
     SCC iter.                  ...        0 min,  0.003 sec
     gradient                   ...        0 min,  0.001 sec
 * total energy  :   -25.7456848 Eh     change       -0.9157492E-03 Eh
   gradient norm :     0.0072449 Eh/α   predicted    -0.9448825E-03 (   3.18%)
   displ. norm   :     0.0211127 α      lambda       -0.8432286E-04
   maximum displ.:     0.0108427 α      in ANC's #15, #16, #17, ...

........................................................................
.............................. CYCLE    4 ..............................
........................................................................

 iter      E             dE          RMSdq      gap      omega  full diag
   1    -26.2230473 -0.262230E+02  0.280E-02    2.42       0.0  T
   2    -26.2230475 -0.263986E-06  0.166E-02    2.42       1.5  T
   3    -26.2230473  0.280649E-06  0.477E-03    2.42       5.1  T
   4    -26.2230476 -0.363100E-06  0.756E-04    2.42      32.1  T
   5    -26.2230476 -0.399440E-08  0.418E-04    2.42      58.0  T
     SCC iter.                  ...        0 min,  0.003 sec
     gradient                   ...        0 min,  0.001 sec
 * total energy  :   -25.7457456 Eh     change       -0.6088322E-04 Eh
   gradient norm :     0.0034377 Eh/α   predicted    -0.4218221E-04 ( -30.72%)
   displ. norm   :     0.0215049 α      lambda       -0.3738320E-04
   maximum displ.:     0.0128204 α      in ANC's #15, #16, #14, ...

........................................................................
.............................. CYCLE    5 ..............................
........................................................................

 iter      E             dE          RMSdq      gap      omega  full diag
   1    -26.2223248 -0.262223E+02  0.248E-02    2.42       0.0  T
   2    -26.2223249 -0.110976E-06  0.145E-02    2.42       1.7  T
   3    -26.2223248  0.159885E-06  0.367E-03    2.42       6.6  T
   4    -26.2223250 -0.208836E-06  0.443E-04    2.42      54.7  T
   5    -26.2223250 -0.127347E-09  0.261E-04    2.42      92.9  T
     SCC iter.                  ...        0 min,  0.002 sec
     gradient                   ...        0 min,  0.001 sec
 * total energy  :   -25.7457655 Eh     change       -0.1981651E-04 Eh
   gradient norm :     0.0008182 Eh/α   predicted    -0.1869995E-04 (  -5.63%)
   displ. norm   :     0.0043476 α      lambda       -0.1051277E-05
   maximum displ.:     0.0026035 α      in ANC's #15, #10, #14, ...

........................................................................
.............................. CYCLE    6 ..............................
........................................................................

 iter      E             dE          RMSdq      gap      omega  full diag
   1    -26.2225243 -0.262225E+02  0.501E-03    2.42       0.0  T
   2    -26.2225243 -0.391886E-08  0.299E-03    2.42       8.1  T
   3    -26.2225243  0.978435E-08  0.829E-04    2.42      29.3  T
   4    -26.2225243 -0.118280E-07  0.103E-04    2.42     235.9  T
     SCC iter.                  ...        0 min,  0.002 sec
     gradient                   ...        0 min,  0.001 sec
 * total energy  :   -25.7457663 Eh     change       -0.8313209E-06 Eh
   gradient norm :     0.0002182 Eh/α   predicted    -0.5260660E-06 ( -36.72%)
   displ. norm   :     0.0011391 α      lambda       -0.7999988E-07
   maximum displ.:     0.0007558 α      in ANC's #17, #16, #13, ...

   *** GEOMETRY OPTIMIZATION CONVERGED AFTER 6 ITERATIONS ***

------------------------------------------------------------------------
 total energy gain   :        -0.0078247 Eh       -4.9101 kcal/mol
 total RMSD          :         0.0782534 a0        0.0414 Å
 total power (kW/mol):        -3.4239651 (step) -498.1063 (real)
------------------------------------------------------------------------

 ANCopt (total)                0 d,  0 h,  0 min,  0.041 sec
 optimizer setup                ...        0 min,  0.001 sec (  1.680%)
 model hessian                  ...        0 min,  0.003 sec (  7.823%)
 ANC generation                 ...        0 min,  0.003 sec (  7.559%)
 coordinate transformation      ...        0 min,  0.000 sec (  0.049%)
 single point calculation       ...        0 min,  0.027 sec ( 65.256%)
 optimization log               ...        0 min,  0.003 sec (  7.438%)
 hessian update                 ...        0 min,  0.000 sec (  0.232%)
 rational function              ...        0 min,  0.004 sec (  9.011%)

================
 final structure:
================
17
 xtb: 6.6.0 (conda-forge)
C           -2.27692755526391        0.71124878719440        0.19854462254932
C           -2.36462970539482       -0.62253377661937       -0.23352736864892
C           -1.23467071886954       -1.35855044402278       -0.45579953268631
C            0.03800753911447       -0.78515083232737       -0.25311702481971
C            0.12714563055677        0.56550411670015        0.18442550004796
C           -1.05813086698797        1.29497335985385        0.40382452698749
C            1.41684913355966        1.10363854243759        0.37594935229536
C            2.51095597916690        0.31826153923948        0.13724056722132
C            2.30642941925079       -1.00598532814904       -0.29335175639600
N            1.13300971859173       -1.53853256289184       -0.48147795214992
H           -3.18413580030423        1.27279714169890        0.36750982258685
H           -3.33902663882519       -1.06223097015977       -0.38892927950937
H           -1.27958525970277       -2.38398242465451       -0.78767463153109
H           -0.98319191723808        2.32112894582212        0.73634474625985
H            1.51983818089573        2.12805988835904        0.70829524889612
H            3.51428688822572        0.69246188475024        0.27187966482313
H            3.15397597322472       -1.65110786723110       -0.49013650592606

 Bond Distances (Angstroems)
 ---------------------------
C1-C2=1.4048         C1-C6=1.3669         C1-H11=1.0802        C2-C1=1.4048         C2-C3=1.3667         C2-H12=1.0802        
C3-C2=1.3667         C3-C4=1.4105         C3-H13=1.0787        C4-C3=1.4105         C4-C5=1.4226         C4-N10=1.3486        
C5-C4=1.4226         C5-C6=1.4090         C5-C7=1.4105         C6-C1=1.3669         C6-C5=1.4090         C6-H14=1.0813        
C7-C5=1.4105         C7-C8=1.3678         C7-H15=1.0819        C8-C7=1.3678         C8-C9=1.4074         C8-H16=1.0793        
C9-C8=1.4074         C9-N10=1.3023        C9-H17=1.0832        N10-C4=1.3486        N10-C9=1.3023        H11-C1=1.0802        
H12-C2=1.0802        H13-C3=1.0787        H14-C6=1.0813        H15-C7=1.0819        H16-C8=1.0793        H17-C9=1.0832        
 C  H  Rav=1.0807 sigma=0.0014  Rmin=1.0787  Rmax=1.0832     7
 C  C  Rav=1.3962 sigma=0.0211  Rmin=1.3667  Rmax=1.4226     9
 N  C  Rav=1.3254 sigma=0.0232  Rmin=1.3023  Rmax=1.3486     2

 selected bond angles (degree)
 --------------------
C6-C1-C2=120.49                H11-C1-C2=119.29               H11-C1-C6=120.22               C3-C2-C1=120.65                
H12-C2-C1=119.15               H12-C2-C3=120.21               C4-C3-C2=120.24                H13-C3-C2=121.84               
H13-C3-C4=117.92               C5-C4-C3=119.12                N10-C4-C3=118.76               N10-C4-C5=122.11               
C6-C5-C4=119.13                C7-C5-C4=117.47                C7-C5-C6=123.40                C5-C6-C1=120.37                
H14-C6-C1=120.88               H14-C6-C5=118.75               C8-C7-C5=119.25                H15-C7-C5=119.34               
H15-C7-C8=121.41               C9-C8-C7=118.52                H16-C8-C7=121.52               H16-C8-C9=119.97               
N10-C9-C8=124.05               H17-C9-C8=120.15               H17-C9-N10=115.80              C9-N10-C4=118.60               

 selected dihedral angles (degree)
 ---------------------------------
C3-C2-C1-C6=  0.00            C3-C2-C1-H11=180.00           H12-C2-C1-C6=180.00           H12-C2-C1-H11=  0.00          
C4-C3-C2-C1=  0.00            C4-C3-C2-H12=180.00           H13-C3-C2-C1=180.00           H13-C3-C2-H12=  0.00          
C5-C4-C3-C2=  0.00            C5-C4-C3-H13=180.00           N10-C4-C3-C2=180.00           N10-C4-C3-H13=  0.00          
C6-C5-C4-C3=  0.00            C6-C5-C4-N10=180.00           C7-C5-C4-C3=180.00            C7-C5-C4-N10=  0.00           
C5-C6-C1-C2=  0.00            C5-C6-C1-H11=180.00           H14-C6-C1-C2=180.00           H14-C6-C1-H11=  0.00          
C1-C6-C5-C4=  0.00            C1-C6-C5-C7=180.00            H14-C6-C5-C4=180.00           H14-C6-C5-C7=  0.00           
C8-C7-C5-C4=  0.00            C8-C7-C5-C6=180.00            H15-C7-C5-C4=180.00           H15-C7-C5-C6=  0.00           
C9-C8-C7-C5=  0.00            C9-C8-C7-H15=180.00           H16-C8-C7-C5=180.00           H16-C8-C7-H15=  0.00          
N10-C9-C8-C7=  0.00           N10-C9-C8-H16=180.00          H17-C9-C8-C7=180.00           H17-C9-C8-H16=  0.00          
C9-N10-C4-C3=180.00           C9-N10-C4-C5=  0.00           C4-N10-C9-C8=  0.00           C4-N10-C9-H17=180.00          
           -------------------------------------------------
          |                Final Singlepoint                |
           -------------------------------------------------

          ...................................................
          :                      SETUP                      :
          :.................................................:
          :  # basis functions                  47          :
          :  # atomic orbitals                  47          :
          :  # shells                           27          :
          :  # electrons                        48          :
          :  max. iterations                   250          :
          :  Hamiltonian                  GFN2-xTB          :
          :  restarted?                      false          :
          :  GBSA solvation                  false          :
          :  PC potential                    false          :
          :  electronic temp.          300.0000000     K    :
          :  accuracy                    1.0000000          :
          :  -> integral cutoff          0.2500000E+02      :
          :  -> integral neglect         0.1000000E-07      :
          :  -> SCF convergence          0.1000000E-05 Eh   :
          :  -> wf. convergence          0.1000000E-03 e    :
          :  Broyden damping             0.4000000          :
          ...................................................

 iter      E             dE          RMSdq      gap      omega  full diag
   1    -26.2225243 -0.262225E+02  0.548E-05    2.42       0.0  T
   2    -26.2225243 -0.390443E-11  0.316E-05    2.42     767.6  T
   3    -26.2225243  0.145661E-12  0.201E-05    2.42    1209.4  T

   *** convergence criteria satisfied after 3 iterations ***

         #    Occupation            Energy/Eh            Energy/eV
      -------------------------------------------------------------
         1        2.0000           -0.6619142             -18.0116
       ...           ...                  ...                  ...
        18        2.0000           -0.4670912             -12.7102
        19        2.0000           -0.4457705             -12.1300
        20        2.0000           -0.4370212             -11.8920
        21        2.0000           -0.4271763             -11.6241
        22        2.0000           -0.4090172             -11.1299
        23        2.0000           -0.3948018             -10.7431
        24        2.0000           -0.3643919              -9.9156 (HOMO)
        25                         -0.2753917              -7.4938 (LUMO)
        26                         -0.2377521              -6.4696
        27                         -0.2024790              -5.5097
        28                         -0.1559321              -4.2431
        29                         -0.0670375              -1.8242
       ...                                ...                  ...
        47                          0.6901044              18.7787
      -------------------------------------------------------------
                  HL-Gap            0.0890002 Eh            2.4218 eV
             Fermi-level           -0.3198918 Eh           -8.7047 eV

 SCC (total)                   0 d,  0 h,  0 min,  0.003 sec
 SCC setup                      ...        0 min,  0.000 sec (  2.360%)
 Dispersion                     ...        0 min,  0.000 sec (  1.221%)
 classical contributions        ...        0 min,  0.000 sec (  0.434%)
 integral evaluation            ...        0 min,  0.000 sec ( 12.727%)
 iterations                     ...        0 min,  0.001 sec ( 46.787%)
 molecular gradient             ...        0 min,  0.001 sec ( 33.678%)
 printout                       ...        0 min,  0.000 sec (  2.577%)

         :::::::::::::::::::::::::::::::::::::::::::::::::::::
         ::                     SUMMARY                     ::
         :::::::::::::::::::::::::::::::::::::::::::::::::::::
         :: total energy             -25.745766288742 Eh    ::
         :: gradient norm              0.000218021729 Eh/a0 ::
         :: HOMO-LUMO gap              2.421818458873 eV    ::
         ::.................................................::
         :: SCC energy               -26.222524265046 Eh    ::
         :: -> isotropic ES            0.008072402555 Eh    ::
         :: -> anisotropic ES          0.002712599212 Eh    ::
         :: -> anisotropic XC          0.021587291111 Eh    ::
         :: -> dispersion             -0.015711774978 Eh    ::
         :: repulsion energy           0.476730477984 Eh    ::
         :: add. restraining           0.000000000000 Eh    ::
         :: total charge              -0.000000000000 e     ::
         :::::::::::::::::::::::::::::::::::::::::::::::::::::

           -------------------------------------------------
          |                Property Printout                |
           -------------------------------------------------

    * Orbital Energies and Occupations

         #    Occupation            Energy/Eh            Energy/eV
      -------------------------------------------------------------
         1        2.0000           -0.6619142             -18.0116
       ...           ...                  ...                  ...
        12        2.0000           -0.5110268             -13.9057
        13        2.0000           -0.5009483             -13.6315
        14        2.0000           -0.4903154             -13.3422
        15        2.0000           -0.4815071             -13.1025
        16        2.0000           -0.4715713             -12.8321
        17        2.0000           -0.4697481             -12.7825
        18        2.0000           -0.4670912             -12.7102
        19        2.0000           -0.4457705             -12.1300
        20        2.0000           -0.4370212             -11.8920
        21        2.0000           -0.4271763             -11.6241
        22        2.0000           -0.4090172             -11.1299
        23        2.0000           -0.3948018             -10.7431
        24        2.0000           -0.3643919              -9.9156 (HOMO)
        25                         -0.2753917              -7.4938 (LUMO)
        26                         -0.2377521              -6.4696
        27                         -0.2024790              -5.5097
        28                         -0.1559321              -4.2431
        29                         -0.0670375              -1.8242
        30                          0.1058382               2.8800
        31                          0.1188826               3.2350
        32                          0.1327275               3.6117
        33                          0.1468154               3.9951
        34                          0.1598304               4.3492
        35                          0.1782116               4.8494
       ...                                ...                  ...
        47                          0.6901044              18.7787
      -------------------------------------------------------------
                  HL-Gap            0.0890002 Eh            2.4218 eV
             Fermi-level           -0.3198918 Eh           -8.7047 eV

     #   Z          covCN         q      C6AA      α(0)
     1   6 C        2.916    -0.029    28.719     8.788
     2   6 C        2.916    -0.027    28.677     8.781
     3   6 C        2.919    -0.038    28.934     8.821
     4   6 C        2.974     0.091    25.978     8.360
     5   6 C        2.985     0.002    27.963     8.674
     6   6 C        2.916    -0.035    28.870     8.811
     7   6 C        2.924    -0.017    28.435     8.745
     8   6 C        2.910    -0.042    29.045     8.837
     9   6 C        2.904     0.065    26.538     8.447
    10   7 N        1.840    -0.231    26.903     7.687
    11   1 H        0.926     0.035     2.518     2.481
    12   1 H        0.926     0.037     2.490     2.468
    13   1 H        0.926     0.053     2.281     2.362
    14   1 H        0.925     0.033     2.542     2.493
    15   1 H        0.925     0.033     2.547     2.496
    16   1 H        0.926     0.033     2.546     2.495
    17   1 H        0.925     0.036     2.500     2.473

 Mol. C6AA /au·bohr⁶  :       4086.056408
 Mol. C8AA /au·bohr⁸  :     101937.696494
 Mol. α(0) /au        :        103.218837


Wiberg/Mayer (AO) data.
largest (>0.10) Wiberg bond orders for each atom

 ---------------------------------------------------------------------------
     #   Z sym  total        # sym  WBO       # sym  WBO       # sym  WBO
 ---------------------------------------------------------------------------
     1   6 C    3.992 --     6 C    1.558     2 C    1.320    11 H    0.971
     2   6 C    3.992 --     3 C    1.560     1 C    1.320    12 H    0.971
     3   6 C    3.991 --     2 C    1.560     4 C    1.270    13 H    0.967
                             6 C    0.119
     4   6 C    3.982 --    10 N    1.284     3 C    1.270     5 C    1.238
     5   6 C    3.991 --     7 C    1.284     6 C    1.279     4 C    1.238
     6   6 C    3.992 --     1 C    1.558     5 C    1.279    14 H    0.968
                             3 C    0.119
     7   6 C    3.991 --     8 C    1.558     5 C    1.284    15 H    0.967
                            10 N    0.107
     8   6 C    3.992 --     7 C    1.558     9 C    1.303    16 H    0.970
     9   6 C    3.981 --    10 N    1.556     8 C    1.303    17 H    0.963
    10   7 N    3.066 --     9 C    1.556     4 C    1.284     7 C    0.107
    11   1 H    0.998 --     1 C    0.971
    12   1 H    0.998 --     2 C    0.971
    13   1 H    0.997 --     3 C    0.967
    14   1 H    0.999 --     6 C    0.968
    15   1 H    0.998 --     7 C    0.967
    16   1 H    0.998 --     8 C    0.970
    17   1 H    0.998 --     9 C    0.963
 ---------------------------------------------------------------------------

Topologies differ in total number of bonds
Writing topology from bond orders to xtbtopo.mol

molecular dipole:
                 x           y           z       tot (Debye)
 q only:       -0.151       0.337       0.107
   full:       -0.065       0.731       0.235       1.958
molecular quadrupole (traceless):
                xx          xy          yy          xz          yz          zz
 q only:        3.383       1.359      -1.123       0.518       0.433      -2.259
  q+dip:        7.503       2.284      -1.080       0.938       1.967      -6.424
   full:        5.543       2.305      -2.811       0.858       0.011      -2.732

           -------------------------------------------------
          |                Geometry Summary                 |
           -------------------------------------------------

      molecular mass/u    :      129.1589116
   center of mass at/Å    :        0.0684564      -0.1359793      -0.0429886
  moments of inertia/u·Å² :        0.1581889E+03   0.3929823E+03   0.5511712E+03
rotational constants/cm⁻¹ :        0.1065665E+00   0.4289667E-01   0.3058511E-01

 * 18 selected distances

     #   Z          #   Z                                           value/Å
     1   6 C        2   6 C                                       1.4047612
     2   6 C        3   6 C                                       1.3667235
     3   6 C        4   6 C                                       1.4105239
     4   6 C        5   6 C                                       1.4225534 (max)
     1   6 C        6   6 C                                       1.3668723
     5   6 C        6   6 C                                       1.4089507
     5   6 C        7   6 C                                       1.4105338
     7   6 C        8   6 C                                       1.3677972
     8   6 C        9   6 C                                       1.4074342
     4   6 C       10   7 N                                       1.3486152
     9   6 C       10   7 N                                       1.3022719
     1   6 C       11   1 H                                       1.0802374
     2   6 C       12   1 H                                       1.0802467
     3   6 C       13   1 H                                       1.0787351 (min)
     6   6 C       14   1 H                                       1.0812868
     7   6 C       15   1 H                                       1.0818964
     8   6 C       16   1 H                                       1.0792714
     9   6 C       17   1 H                                       1.0831633

 * 3 distinct bonds (by element types)

   Z      Z             #   av. dist./Å        max./Å        min./Å
   1 H    6 C           7     1.0806910     1.0831633     1.0787351
   6 C    6 C           9     1.3962389     1.4225534     1.3667235
   6 C    7 N           2     1.3254435     1.3486152     1.3022719


optimized geometry written to: xtbopt.xyz


           -------------------------------------------------
          | TOTAL ENERGY              -25.745766288742 Eh   |
          | GRADIENT NORM               0.000218021729 Eh/α |
          | HOMO-LUMO GAP               2.421818458873 eV   |
           -------------------------------------------------
########################################################################
[WARNING] Runtime exception occurred
-2- restart_readRestart: Dimension missmatch in restart file.
-1- restart_readRestart: Number of electron missmatch in restart file.
########################################################################

------------------------------------------------------------------------
 * finished run on 2024/09/13 at 15:43:34.914     
------------------------------------------------------------------------
 total:
 * wall-time:     0 d,  0 h,  0 min,  8.936 sec
 *  cpu-time:     0 d,  0 h,  0 min,  2.000 sec
 * ratio c/w:     0.224 speedup
 SCF:
 * wall-time:     0 d,  0 h,  0 min,  0.019 sec
 *  cpu-time:     0 d,  0 h,  0 min,  0.108 sec
 * ratio c/w:     5.658 speedup
 ANC optimizer:
 * wall-time:     0 d,  0 h,  0 min,  0.046 sec
 *  cpu-time:     0 d,  0 h,  0 min,  0.305 sec
 * ratio c/w:     6.656 speedup

