      -----------------------------------------------------------      
     |                   =====================                   |     
     |                           x T B                           |     
     |                   =====================                   |     
     |                         S. Grimme                         |     
     |          Mulliken Center for Theoretical Chemistry        |     
     |                    University of Bonn                     |     
      -----------------------------------------------------------      

   * xtb version 6.6.0 (conda-forge) compiled by 'runner@Mac-1676020848589.local' on 2023-02-10

   xtb is free software: you can redistribute it and/or modify it under
   the terms of the GNU Lesser General Public License as published by
   the Free Software Foundation, either version 3 of the License, or
   (at your option) any later version.
   
   xtb is distributed in the hope that it will be useful,
   but WITHOUT ANY WARRANTY; without even the implied warranty of
   MERCHANTABILITY or FITNESS FOR A PARTICULAR PURPOSE.  See the
   GNU Lesser General Public License for more details.
   
   Cite this work as:
   * C. Bannwarth, E. Caldeweyher, S. Ehlert, A. Hansen, P. Pracht,
     J. Seibert, S. Spicher, S. Grimme, WIREs Comput. Mol. Sci., 2020, 11,
     e01493. DOI: 10.1002/wcms.1493
   
   for GFN2-xTB:
   * C. Bannwarth, S. Ehlert and S. Grimme., J. Chem. Theory Comput., 2019,
     15, 1652-1671. DOI: 10.1021/acs.jctc.8b01176
   for GFN1-xTB:
   * S. Grimme, C. Bannwarth, P. Shushkov, J. Chem. Theory Comput., 2017,
     13, 1989-2009. DOI: 10.1021/acs.jctc.7b00118
   for GFN0-xTB:
   * P. Pracht, E. Caldeweyher, S. Ehlert, S. Grimme, ChemRxiv, 2019, preprint.
     DOI: 10.26434/chemrxiv.8326202.v1
   for GFN-FF:
   * S. Spicher and S. Grimme, Angew. Chem. Int. Ed., 2020, 59, 15665-15673.
     DOI: 10.1002/anie.202004239
   
   for ALPB and GBSA implicit solvation:
   * S. Ehlert, M. Stahn, S. Spicher, S. Grimme, J. Chem. Theory Comput.,
     2021, 17, 4250-4261. DOI: 10.1021/acs.jctc.1c00471
   
   for DFT-D4:
   * E. Caldeweyher, C. Bannwarth and S. Grimme, J. Chem. Phys., 2017,
     147, 034112. DOI: 10.1063/1.4993215
   * E. Caldeweyher, S. Ehlert, A. Hansen, H. Neugebauer, S. Spicher,
     C. Bannwarth and S. Grimme, J. Chem. Phys., 2019, 150, 154122.
     DOI: 10.1063/1.5090222
   * E. Caldeweyher, J.-M. Mewes, S. Ehlert and S. Grimme, Phys. Chem. Chem. Phys.
     2020, 22, 8499-8512. DOI: 10.1039/D0CP00502A
   
   for sTDA-xTB:
   * S. Grimme and C. Bannwarth, J. Chem. Phys., 2016, 145, 054103.
     DOI: 10.1063/1.4959605
   
   in the mass-spec context:
   * V. Asgeirsson, C. Bauer and S. Grimme, Chem. Sci., 2017, 8, 4879.
     DOI: 10.1039/c7sc00601b
   * J. Koopman and S. Grimme, ACS Omega 2019, 4, 12, 15120-15133.
     DOI: 10.1021/acsomega.9b02011
   
   for metadynamics refer to:
   * S. Grimme, J. Chem. Theory Comput., 2019, 155, 2847-2862
     DOI: 10.1021/acs.jctc.9b00143
   
   for SPH calculations refer to:
   * S. Spicher and S. Grimme, J. Chem. Theory Comput., 2021, 17, 1701-1714
     DOI: 10.1021/acs.jctc.0c01306
   
   with help from (in alphabetical order)
   P. Atkinson, C. Bannwarth, F. Bohle, G. Brandenburg, E. Caldeweyher
   M. Checinski, S. Dohm, S. Ehlert, S. Ehrlich, I. Gerasimov, C. Hölzer
   A. Katbashev, J. Koopman, C. Lavigne, S. Lehtola, F. März, M. Müller,
   F. Musil, H. Neugebauer, J. Pisarek, C. Plett, P. Pracht, F. Pultar,
   J. Seibert, P. Shushkov, S. Spicher, M. Stahn, M. Steiner, T. Strunk,
   J. Stückrath, T. Rose, and J. Unsleber
   
 * started run on 2024/09/24 at 21:07:34.070     

           -------------------------------------------------
          |                Calculation Setup                |
           -------------------------------------------------

          program call               : xtb acetaminophen.xyz --opt --gfn2
          coordinate file            : acetaminophen.xyz
          omp threads                :                     8

   ID    Z sym.   atoms
    1    6 C      1, 2, 5-10
    2    8 O      3, 11
    3    7 N      4
    4    1 H      12-20

           -------------------------------------------------
          |                 G F N 2 - x T B                 |
           -------------------------------------------------

        Reference                      10.1021/acs.jctc.8b01176
      * Hamiltonian:
        H0-scaling (s, p, d)           1.850000    2.230000    2.230000
        zeta-weighting                 0.500000
      * Dispersion:
        s8                             2.700000
        a1                             0.520000
        a2                             5.000000
        s9                             5.000000
      * Repulsion:
        kExp                           1.500000    1.000000
        rExp                           1.000000
      * Coulomb:
        alpha                          2.000000
        third order                    shell-resolved
        anisotropic                    true
        a3                             3.000000
        a5                             4.000000
        cn-shift                       1.200000
        cn-exp                         4.000000
        max-rad                        5.000000

q/qsh data taken from xtbrestart
CAMM data taken from xtbrestart

          ...................................................
          :                      SETUP                      :
          :.................................................:
          :  # basis functions                  53          :
          :  # atomic orbitals                  53          :
          :  # shells                           31          :
          :  # electrons                        58          :
          :  max. iterations                   250          :
          :  Hamiltonian                  GFN2-xTB          :
          :  restarted?                       true          :
          :  GBSA solvation                  false          :
          :  PC potential                    false          :
          :  electronic temp.          300.0000000     K    :
          :  accuracy                    1.0000000          :
          :  -> integral cutoff          0.2500000E+02      :
          :  -> integral neglect         0.1000000E-07      :
          :  -> SCF convergence          0.1000000E-05 Eh   :
          :  -> wf. convergence          0.1000000E-03 e    :
          :  Broyden damping             0.4000000          :
          ...................................................

 iter      E             dE          RMSdq      gap      omega  full diag
   1    -33.1527003 -0.331527E+02  0.262E+00    3.44       0.0  T
   2    -33.1579483 -0.524796E-02  0.157E+00    3.45       1.0  T
   3    -33.1529362  0.501210E-02  0.655E-01    3.52       1.0  T
   4    -33.1598886 -0.695238E-02  0.137E-01    3.47       1.0  T
   5    -33.1600381 -0.149561E-03  0.706E-02    3.46       1.0  T
   6    -33.1600412 -0.308753E-05  0.303E-02    3.46       1.0  T
   7    -33.1600491 -0.793074E-05  0.973E-03    3.46       2.3  T
   8    -33.1600494 -0.287037E-06  0.284E-03    3.46       7.9  T
   9    -33.1600494 -0.774967E-08  0.110E-03    3.46      20.3  T
  10    -33.1600494 -0.138667E-08  0.453E-04    3.46      49.4  T
  11    -33.1600494 -0.214945E-08  0.144E-04    3.46     155.6  T

   *** convergence criteria satisfied after 11 iterations ***

         #    Occupation            Energy/Eh            Energy/eV
      -------------------------------------------------------------
         1        2.0000           -0.6968241             -18.9615
       ...           ...                  ...                  ...
        23        2.0000           -0.4631025             -12.6017
        24        2.0000           -0.4564991             -12.4220
        25        2.0000           -0.4302763             -11.7084
        26        2.0000           -0.4179187             -11.3721
        27        2.0000           -0.4056715             -11.0389
        28        2.0000           -0.3949664             -10.7476
        29        2.0000           -0.3701381             -10.0720 (HOMO)
        30                         -0.2429830              -6.6119 (LUMO)
        31                         -0.2302394              -6.2651
        32                         -0.2047968              -5.5728
        33                         -0.0977858              -2.6609
        34                         -0.0502237              -1.3667
       ...                                ...                  ...
        53                          0.6195397              16.8585
      -------------------------------------------------------------
                  HL-Gap            0.1271552 Eh            3.4601 eV
             Fermi-level           -0.3065605 Eh           -8.3419 eV

 SCC (total)                   0 d,  0 h,  0 min,  0.051 sec
 SCC setup                      ...        0 min,  0.003 sec (  5.924%)
 Dispersion                     ...        0 min,  0.001 sec (  1.498%)
 classical contributions        ...        0 min,  0.001 sec (  1.064%)
 integral evaluation            ...        0 min,  0.003 sec (  5.052%)
 iterations                     ...        0 min,  0.040 sec ( 79.847%)
 molecular gradient             ...        0 min,  0.003 sec (  5.804%)
 printout                       ...        0 min,  0.000 sec (  0.759%)

         :::::::::::::::::::::::::::::::::::::::::::::::::::::
         ::                     SUMMARY                     ::
         :::::::::::::::::::::::::::::::::::::::::::::::::::::
         :: total energy             -32.759259185115 Eh    ::
         :: gradient norm              0.121054260924 Eh/a0 ::
         :: HOMO-LUMO gap              3.460068557154 eV    ::
         ::.................................................::
         :: SCC energy               -33.160049441050 Eh    ::
         :: -> isotropic ES            0.061132877323 Eh    ::
         :: -> anisotropic ES          0.005396697569 Eh    ::
         :: -> anisotropic XC          0.011666429619 Eh    ::
         :: -> dispersion             -0.015823488177 Eh    ::
         :: repulsion energy           0.400829426049 Eh    ::
         :: add. restraining           0.000000000000 Eh    ::
         :: total charge               0.000000000000 e     ::
         :::::::::::::::::::::::::::::::::::::::::::::::::::::

      ----------------------------------------------------------- 
     |                   =====================                   |
     |                        A N C O P T                        |
     |                   =====================                   |
     |               Approximate Normal Coordinate               |
     |                Rational Function Optimizer                |
      ----------------------------------------------------------- 

          ...................................................
          :                      SETUP                      :
          :.................................................:
          :   optimization level            normal          :
          :   max. optcycles                   200          :
          :   ANC micro-cycles                  20          :
          :   degrees of freedom                54          :
          :.................................................:
          :   RF solver                   davidson          :
          :   write xtbopt.log                true          :
          :   linear?                        false          :
          :   energy convergence         0.5000000E-05 Eh   :
          :   grad. convergence          0.1000000E-02 Eh/α :
          :   maxmium RF displ.          1.0000000          :
          :   Hlow (freq-cutoff)         0.1000000E-01      :
          :   Hmax (freq-cutoff)         5.0000000          :
          :   S6 in model hess.         20.0000000          :
          ...................................................

generating ANC from model Hessian ...
Using Lindh-Hessian (1995)
 Shifting diagonal of input Hessian by    8.6291392914564086E-003
 Lowest  eigenvalues of input Hessian
    0.000000    0.000000    0.000000    0.000000    0.000000    0.000000
    0.010000    0.011113    0.011869    0.016298    0.020640    0.022724
    0.024550    0.027369    0.030725    0.035117    0.043392    0.049872
 Highest eigenvalues
    1.582954    1.794084    1.830000    1.933758    2.009511    2.028659


........................................................................
.............................. CYCLE    1 ..............................
........................................................................

 iter      E             dE          RMSdq      gap      omega  full diag
   1    -33.1600494 -0.331600E+02  0.628E-05    3.46       0.0  T
   2    -33.1600494 -0.177636E-10  0.403E-05    3.46     555.5  T
   3    -33.1600494 -0.143388E-10  0.233E-05    3.46     959.4  T
     SCC iter.                  ...        0 min,  0.002 sec
     gradient                   ...        0 min,  0.002 sec
 * total energy  :   -32.7592592 Eh     change       -0.1563834E-09 Eh
   gradient norm :     0.1210551 Eh/α   predicted     0.0000000E+00 (-100.00%)
   displ. norm   :     0.3498063 α      lambda       -0.2313944E-01
   maximum displ.:     0.1828276 α      in ANC's #8, #17, #29, ...

........................................................................
.............................. CYCLE    2 ..............................
........................................................................

 iter      E             dE          RMSdq      gap      omega  full diag
   1    -33.2159161 -0.332159E+02  0.282E-01    3.78       0.0  T
   2    -33.2162391 -0.322980E-03  0.174E-01    3.74       1.0  T
   3    -33.2162532 -0.141347E-04  0.881E-02    3.76       1.0  T
   4    -33.2162740 -0.207773E-04  0.194E-02    3.75       1.2  T
   5    -33.2162779 -0.384700E-05  0.647E-03    3.75       3.5  T
   6    -33.2162782 -0.317676E-06  0.352E-03    3.75       6.4  T
   7    -33.2162783 -0.114435E-06  0.121E-03    3.75      18.4  T
   8    -33.2162783 -0.161595E-08  0.378E-04    3.75      59.2  T
   9    -33.2162783 -0.421586E-09  0.145E-04    3.75     154.0  T
     SCC iter.                  ...        0 min,  0.006 sec
     gradient                   ...        0 min,  0.002 sec
 * total energy  :   -32.7753201 Eh     change       -0.1606093E-01 Eh
   gradient norm :     0.0453665 Eh/α   predicted    -0.1299902E-01 ( -19.06%)
   displ. norm   :     0.3517181 α      lambda       -0.7136759E-02
   maximum displ.:     0.2582741 α      in ANC's #8, #2, #17, ...

........................................................................
.............................. CYCLE    3 ..............................
........................................................................

 iter      E             dE          RMSdq      gap      omega  full diag
   1    -33.2450468 -0.332450E+02  0.200E-01    3.88       0.0  T
   2    -33.2452120 -0.165233E-03  0.126E-01    3.88       1.0  T
   3    -33.2452176 -0.560070E-05  0.603E-02    3.88       1.0  T
   4    -33.2452255 -0.792250E-05  0.156E-02    3.88       1.4  T
   5    -33.2452283 -0.280424E-05  0.479E-03    3.88       4.7  T
   6    -33.2452285 -0.198862E-06  0.244E-03    3.88       9.2  T
   7    -33.2452286 -0.475759E-07  0.745E-04    3.88      30.0  T
   8    -33.2452286 -0.624702E-09  0.270E-04    3.88      82.8  T
     SCC iter.                  ...        0 min,  0.006 sec
     gradient                   ...        0 min,  0.001 sec
 * total energy  :   -32.7791916 Eh     change       -0.3871480E-02 Eh
   gradient norm :     0.0158825 Eh/α   predicted    -0.4012695E-02 (   3.65%)
   displ. norm   :     0.2414378 α      lambda       -0.1353326E-02
   maximum displ.:     0.1677620 α      in ANC's #2, #8, #13, ...

........................................................................
.............................. CYCLE    4 ..............................
........................................................................

 iter      E             dE          RMSdq      gap      omega  full diag
   1    -33.2445316 -0.332445E+02  0.133E-01    3.84       0.0  T
   2    -33.2445697 -0.381523E-04  0.775E-02    3.86       1.0  T
   3    -33.2445698 -0.111421E-06  0.303E-02    3.86       1.0  T
   4    -33.2445717 -0.191064E-05  0.752E-03    3.86       3.0  T
   5    -33.2445727 -0.906532E-06  0.270E-03    3.86       8.3  T
   6    -33.2445727 -0.205975E-07  0.128E-03    3.86      17.5  T
   7    -33.2445727 -0.495675E-08  0.527E-04    3.86      42.4  T
   8    -33.2445727 -0.175336E-08  0.159E-04    3.86     140.5  T
     SCC iter.                  ...        0 min,  0.006 sec
     gradient                   ...        0 min,  0.001 sec
 * total energy  :   -32.7799931 Eh     change       -0.8015566E-03 Eh
   gradient norm :     0.0093131 Eh/α   predicted    -0.7161076E-03 ( -10.66%)
   displ. norm   :     0.2401142 α      lambda       -0.6084366E-03
   maximum displ.:     0.2008498 α      in ANC's #2, #8, #3, ...

........................................................................
.............................. CYCLE    5 ..............................
........................................................................

 iter      E             dE          RMSdq      gap      omega  full diag
   1    -33.2428421 -0.332428E+02  0.864E-02    3.85       0.0  T
   2    -33.2428454 -0.327870E-05  0.508E-02    3.85       1.0  T
   3    -33.2428426  0.276788E-05  0.156E-02    3.85       1.4  T
   4    -33.2428465 -0.385308E-05  0.352E-03    3.85       6.4  T
   5    -33.2428466 -0.891082E-07  0.180E-03    3.85      12.4  T
   6    -33.2428466 -0.353185E-08  0.637E-04    3.85      35.1  T
   7    -33.2428466 -0.271260E-08  0.249E-04    3.85      89.8  T
     SCC iter.                  ...        0 min,  0.005 sec
     gradient                   ...        0 min,  0.002 sec
 * total energy  :   -32.7804468 Eh     change       -0.4536093E-03 Eh
   gradient norm :     0.0104392 Eh/α   predicted    -0.3217591E-03 ( -29.07%)
   displ. norm   :     0.2247533 α      lambda       -0.4367809E-03
   maximum displ.:     0.1913668 α      in ANC's #2, #3, #5, ...

........................................................................
.............................. CYCLE    6 ..............................
........................................................................

 iter      E             dE          RMSdq      gap      omega  full diag
   1    -33.2421942 -0.332422E+02  0.801E-02    3.85       0.0  T
   2    -33.2421972 -0.301994E-05  0.471E-02    3.84       1.0  T
   3    -33.2421943  0.289718E-05  0.177E-02    3.84       1.3  T
   4    -33.2421982 -0.395191E-05  0.273E-03    3.84       8.2  T
   5    -33.2421983 -0.473292E-07  0.121E-03    3.84      18.5  T
   6    -33.2421983 -0.579693E-08  0.628E-04    3.84      35.6  T
   7    -33.2421983 -0.990482E-09  0.210E-04    3.84     106.5  T
     SCC iter.                  ...        0 min,  0.004 sec
     gradient                   ...        0 min,  0.002 sec
 * total energy  :   -32.7808019 Eh     change       -0.3551900E-03 Eh
   gradient norm :     0.0081784 Eh/α   predicted    -0.2294229E-03 ( -35.41%)
   displ. norm   :     0.2699641 α      lambda       -0.4403968E-03
   maximum displ.:     0.2306410 α      in ANC's #2, #5, #3, ...

........................................................................
.............................. CYCLE    7 ..............................
........................................................................

 iter      E             dE          RMSdq      gap      omega  full diag
   1    -33.2423004 -0.332423E+02  0.103E-01    3.84       0.0  T
   2    -33.2423033 -0.287884E-05  0.603E-02    3.84       1.0  T
   3    -33.2422994  0.390211E-05  0.194E-02    3.84       1.2  T
   4    -33.2423045 -0.513443E-05  0.291E-03    3.84       7.7  T
   5    -33.2423046 -0.341117E-07  0.134E-03    3.84      16.7  T
   6    -33.2423046 -0.544170E-08  0.694E-04    3.84      32.2  T
   7    -33.2423046 -0.161056E-08  0.172E-04    3.84     129.6  T
     SCC iter.                  ...        0 min,  0.005 sec
     gradient                   ...        0 min,  0.002 sec
 * total energy  :   -32.7811660 Eh     change       -0.3640974E-03 Eh
   gradient norm :     0.0080070 Eh/α   predicted    -0.2362476E-03 ( -35.11%)
   displ. norm   :     0.3457394 α      lambda       -0.4857504E-03
   maximum displ.:     0.2959600 α      in ANC's #2, #5, #1, ...

........................................................................
.............................. CYCLE    8 ..............................
........................................................................

 iter      E             dE          RMSdq      gap      omega  full diag
   1    -33.2424036 -0.332424E+02  0.145E-01    3.82       0.0  T
   2    -33.2424066 -0.303247E-05  0.849E-02    3.82       1.0  T
   3    -33.2424026  0.404668E-05  0.195E-02    3.82       1.1  T
   4    -33.2424081 -0.548100E-05  0.350E-03    3.82       6.4  T
   5    -33.2424081 -0.360437E-07  0.169E-03    3.82      13.3  T
   6    -33.2424081 -0.414347E-08  0.675E-04    3.82      33.1  T
   7    -33.2424081 -0.194359E-08  0.230E-04    3.82      97.3  T
     SCC iter.                  ...        0 min,  0.004 sec
     gradient                   ...        0 min,  0.001 sec
 * total energy  :   -32.7815494 Eh     change       -0.3833819E-03 Eh
   gradient norm :     0.0097810 Eh/α   predicted    -0.2719103E-03 ( -29.08%)
   displ. norm   :     0.3946750 α      lambda       -0.4833837E-03
   maximum displ.:     0.3374221 α      in ANC's #2, #5, #1, ...

........................................................................
.............................. CYCLE    9 ..............................
........................................................................

 iter      E             dE          RMSdq      gap      omega  full diag
   1    -33.2426388 -0.332426E+02  0.182E-01    3.80       0.0  T
   2    -33.2426427 -0.388496E-05  0.106E-01    3.80       1.0  T
   3    -33.2426402  0.245522E-05  0.168E-02    3.79       1.3  T
   4    -33.2426441 -0.392598E-05  0.411E-03    3.79       5.4  T
   5    -33.2426442 -0.570825E-07  0.213E-03    3.79      10.5  T
   6    -33.2426442 -0.615815E-08  0.827E-04    3.79      27.0  T
   7    -33.2426442 -0.413543E-08  0.294E-04    3.79      76.2  T
     SCC iter.                  ...        0 min,  0.004 sec
     gradient                   ...        0 min,  0.001 sec
 * total energy  :   -32.7818885 Eh     change       -0.3390604E-03 Eh
   gradient norm :     0.0105521 Eh/α   predicted    -0.2793421E-03 ( -17.61%)
   displ. norm   :     0.2323220 α      lambda       -0.3375663E-03
   maximum displ.:     0.1853779 α      in ANC's #2, #5, #34, ...

........................................................................
.............................. CYCLE   10 ..............................
........................................................................

 iter      E             dE          RMSdq      gap      omega  full diag
   1    -33.2459378 -0.332459E+02  0.127E-01    3.80       0.0  T
   2    -33.2459424 -0.464836E-05  0.750E-02    3.80       1.0  T
   3    -33.2459406  0.181636E-05  0.131E-02    3.80       1.7  T
   4    -33.2459433 -0.272150E-05  0.268E-03    3.80       8.3  T
   5    -33.2459434 -0.318505E-07  0.155E-03    3.80      14.4  T
   6    -33.2459434 -0.518350E-08  0.821E-04    3.80      27.2  T
   7    -33.2459434 -0.401844E-08  0.239E-04    3.80      93.5  T
     SCC iter.                  ...        0 min,  0.004 sec
     gradient                   ...        0 min,  0.001 sec
 * total energy  :   -32.7821196 Eh     change       -0.2310911E-03 Eh
   gradient norm :     0.0053157 Eh/α   predicted    -0.1778935E-03 ( -23.02%)
   displ. norm   :     0.3837881 α      lambda       -0.3220978E-03
   maximum displ.:     0.2949864 α      in ANC's #2, #5, #3, ...

........................................................................
.............................. CYCLE   11 ..............................
........................................................................

 iter      E             dE          RMSdq      gap      omega  full diag
   1    -33.2426593 -0.332427E+02  0.234E-01    3.72       0.0  T
   2    -33.2426922 -0.329103E-04  0.136E-01    3.74       1.0  T
   3    -33.2426895  0.270791E-05  0.278E-02    3.73       1.0  T
   4    -33.2426952 -0.569433E-05  0.577E-03    3.74       3.9  T
   5    -33.2426956 -0.380787E-06  0.300E-03    3.74       7.5  T
   6    -33.2426956 -0.182298E-07  0.129E-03    3.74      17.3  T
   7    -33.2426956 -0.116097E-07  0.558E-04    3.74      40.0  T
   8    -33.2426956 -0.216145E-08  0.144E-04    3.74     155.8  T
     SCC iter.                  ...        0 min,  0.006 sec
     gradient                   ...        0 min,  0.001 sec
 * total energy  :   -32.7821661 Eh     change       -0.4648816E-04 Eh
   gradient norm :     0.0222531 Eh/α   predicted    -0.1847755E-03 ( 297.47%)
   displ. norm   :     0.1066527 α      lambda       -0.4489980E-03
   maximum displ.:     0.0779326 α      in ANC's #2, #3, #4, ...

........................................................................
.............................. CYCLE   12 ..............................
........................................................................

 iter      E             dE          RMSdq      gap      omega  full diag
   1    -33.2472755 -0.332473E+02  0.442E-02    3.80       0.0  T
   2    -33.2472944 -0.188759E-04  0.282E-02    3.78       1.0  T
   3    -33.2472958 -0.146786E-05  0.162E-02    3.78       1.4  T
   4    -33.2472958  0.416804E-08  0.428E-03    3.78       5.2  T
   5    -33.2472961 -0.212521E-06  0.150E-03    3.78      14.9  T
   6    -33.2472961 -0.189337E-07  0.793E-04    3.78      28.2  T
   7    -33.2472961 -0.354252E-08  0.362E-04    3.78      61.8  T
     SCC iter.                  ...        0 min,  0.004 sec
     gradient                   ...        0 min,  0.001 sec
 * total energy  :   -32.7824174 Eh     change       -0.2513759E-03 Eh
   gradient norm :     0.0056454 Eh/α   predicted    -0.2270536E-03 (  -9.68%)
   displ. norm   :     0.1703550 α      lambda       -0.1624655E-03
   maximum displ.:     0.1071289 α      in ANC's #3, #5, #2, ...

........................................................................
.............................. CYCLE   13 ..............................
........................................................................

 iter      E             dE          RMSdq      gap      omega  full diag
   1    -33.2472959 -0.332473E+02  0.107E-01    3.78       0.0  T
   2    -33.2472969 -0.993859E-06  0.627E-02    3.77       1.0  T
   3    -33.2472968  0.881776E-07  0.529E-03    3.77       4.2  T
   4    -33.2472972 -0.396591E-06  0.215E-03    3.77      10.4  T
   5    -33.2472972 -0.267178E-07  0.111E-03    3.77      20.1  T
   6    -33.2472972 -0.199028E-08  0.404E-04    3.77      55.4  T
   7    -33.2472972 -0.111944E-08  0.157E-04    3.77     142.4  T
     SCC iter.                  ...        0 min,  0.004 sec
     gradient                   ...        0 min,  0.001 sec
 * total energy  :   -32.7825524 Eh     change       -0.1350040E-03 Eh
   gradient norm :     0.0053944 Eh/α   predicted    -0.8359111E-04 ( -38.08%)
   displ. norm   :     0.3827636 α      lambda       -0.3082591E-03
   maximum displ.:     0.2264225 α      in ANC's #3, #5, #2, ...

........................................................................
.............................. CYCLE   14 ..............................
........................................................................

 iter      E             dE          RMSdq      gap      omega  full diag
   1    -33.2433270 -0.332433E+02  0.255E-01    3.73       0.0  T
   2    -33.2433372 -0.102349E-04  0.149E-01    3.73       1.0  T
   3    -33.2433354  0.188490E-05  0.178E-02    3.73       1.3  T
   4    -33.2433395 -0.409259E-05  0.506E-03    3.73       4.4  T
   5    -33.2433396 -0.131112E-06  0.294E-03    3.73       7.6  T
   6    -33.2433396 -0.147505E-07  0.108E-03    3.73      20.7  T
   7    -33.2433396 -0.807292E-08  0.446E-04    3.73      50.1  T
   8    -33.2433396 -0.451834E-09  0.810E-05    3.73     275.9  T
     SCC iter.                  ...        0 min,  0.004 sec
     gradient                   ...        0 min,  0.001 sec
 * total energy  :   -32.7826938 Eh     change       -0.1413477E-03 Eh
   gradient norm :     0.0124561 Eh/α   predicted    -0.1767123E-03 (  25.02%)
   displ. norm   :     0.0969445 α      lambda       -0.1832216E-03
   maximum displ.:     0.0720917 α      in ANC's #2, #5, #3, ...

........................................................................
.............................. CYCLE   15 ..............................
........................................................................

 iter      E             dE          RMSdq      gap      omega  full diag
   1    -33.2458378 -0.332458E+02  0.418E-02    3.77       0.0  T
   2    -33.2458418 -0.398793E-05  0.251E-02    3.76       1.0  T
   3    -33.2458416  0.155204E-06  0.119E-02    3.76       1.9  T
   4    -33.2458425 -0.906841E-06  0.258E-03    3.76       8.7  T
   5    -33.2458426 -0.693557E-07  0.116E-03    3.76      19.3  T
   6    -33.2458426 -0.525898E-08  0.627E-04    3.76      35.7  T
   7    -33.2458426 -0.134307E-08  0.229E-04    3.76      97.8  T
     SCC iter.                  ...        0 min,  0.004 sec
     gradient                   ...        0 min,  0.001 sec
 * total energy  :   -32.7827830 Eh     change       -0.8917115E-04 Eh
   gradient norm :     0.0032291 Eh/α   predicted    -0.9249584E-04 (   3.73%)
   displ. norm   :     0.1135352 α      lambda       -0.6542097E-04
   maximum displ.:     0.0659609 α      in ANC's #2, #3, #5, ...

........................................................................
.............................. CYCLE   16 ..............................
........................................................................

 iter      E             dE          RMSdq      gap      omega  full diag
   1    -33.2452335 -0.332452E+02  0.751E-02    3.76       0.0  T
   2    -33.2452341 -0.632124E-06  0.440E-02    3.76       1.0  T
   3    -33.2452338  0.333873E-06  0.616E-03    3.76       3.6  T
   4    -33.2452343 -0.528846E-06  0.160E-03    3.76      14.0  T
   5    -33.2452343 -0.135645E-07  0.811E-04    3.76      27.6  T
   6    -33.2452343 -0.137359E-08  0.323E-04    3.76      69.2  T
     SCC iter.                  ...        0 min,  0.003 sec
     gradient                   ...        0 min,  0.001 sec
 * total energy  :   -32.7828333 Eh     change       -0.5030840E-04 Eh
   gradient norm :     0.0026917 Eh/α   predicted    -0.3313642E-04 ( -34.13%)
   displ. norm   :     0.2439914 α      lambda       -0.1102216E-03
   maximum displ.:     0.1443974 α      in ANC's #2, #3, #5, ...

........................................................................
.............................. CYCLE   17 ..............................
........................................................................

 iter      E             dE          RMSdq      gap      omega  full diag
   1    -33.2444151 -0.332444E+02  0.169E-01    3.73       0.0  T
   2    -33.2444213 -0.617644E-05  0.994E-02    3.74       1.0  T
   3    -33.2444204  0.877841E-06  0.115E-02    3.74       1.9  T
   4    -33.2444221 -0.167307E-05  0.350E-03    3.74       6.4  T
   5    -33.2444222 -0.133861E-06  0.183E-03    3.74      12.2  T
   6    -33.2444222 -0.924749E-08  0.705E-04    3.74      31.7  T
   7    -33.2444222 -0.274821E-08  0.302E-04    3.74      74.1  T
     SCC iter.                  ...        0 min,  0.005 sec
     gradient                   ...        0 min,  0.002 sec
 * total energy  :   -32.7828687 Eh     change       -0.3540535E-04 Eh
   gradient norm :     0.0087131 Eh/α   predicted    -0.5839593E-04 (  64.94%)
   displ. norm   :     0.0623297 α      lambda       -0.8247724E-04
   maximum displ.:     0.0469492 α      in ANC's #3, #4, #5, ...

........................................................................
.............................. CYCLE   18 ..............................
........................................................................

 iter      E             dE          RMSdq      gap      omega  full diag
   1    -33.2461871 -0.332462E+02  0.353E-02    3.76       0.0  T
   2    -33.2461909 -0.383535E-05  0.209E-02    3.76       1.1  T
   3    -33.2461910 -0.683429E-07  0.928E-03    3.76       2.4  T
   4    -33.2461913 -0.242481E-06  0.177E-03    3.76      12.6  T
   5    -33.2461913 -0.414712E-07  0.716E-04    3.76      31.2  T
   6    -33.2461913 -0.348431E-08  0.355E-04    3.76      63.0  T
     SCC iter.                  ...        0 min,  0.003 sec
     gradient                   ...        0 min,  0.002 sec
 * total energy  :   -32.7829088 Eh     change       -0.4009232E-04 Eh
   gradient norm :     0.0024700 Eh/α   predicted    -0.4140146E-04 (   3.27%)
   displ. norm   :     0.0610602 α      lambda       -0.2222586E-04
   maximum displ.:     0.0320097 α      in ANC's #1, #2, #3, ...

........................................................................
.............................. CYCLE   19 ..............................
........................................................................

 iter      E             dE          RMSdq      gap      omega  full diag
   1    -33.2461881 -0.332462E+02  0.370E-02    3.76       0.0  T
   2    -33.2461882 -0.775145E-07  0.217E-02    3.75       1.0  T
   3    -33.2461882  0.225406E-07  0.176E-03    3.75      12.7  T
   4    -33.2461882 -0.556118E-07  0.596E-04    3.75      37.5  T
   5    -33.2461882 -0.819227E-09  0.313E-04    3.75      71.4  T
     SCC iter.                  ...        0 min,  0.003 sec
     gradient                   ...        0 min,  0.002 sec
 * total energy  :   -32.7829273 Eh     change       -0.1856119E-04 Eh
   gradient norm :     0.0017683 Eh/α   predicted    -0.1116347E-04 ( -39.86%)
   displ. norm   :     0.2436341 α      lambda       -0.4410830E-04
   maximum displ.:     0.1393991 α      in ANC's #2, #1, #3, ...

........................................................................
.............................. CYCLE   20 ..............................
........................................................................

 iter      E             dE          RMSdq      gap      omega  full diag
   1    -33.2454846 -0.332455E+02  0.149E-01    3.74       0.0  T
   2    -33.2454859 -0.129943E-05  0.876E-02    3.74       1.0  T
   3    -33.2454857  0.111081E-06  0.620E-03    3.74       3.6  T
   4    -33.2454863 -0.590786E-06  0.245E-03    3.74       9.1  T
   5    -33.2454864 -0.269192E-07  0.135E-03    3.74      16.6  T
   6    -33.2454864 -0.570397E-08  0.451E-04    3.74      49.6  T
   7    -33.2454864 -0.124935E-08  0.196E-04    3.74     114.3  T
     SCC iter.                  ...        0 min,  0.004 sec
     gradient                   ...        0 min,  0.001 sec
 * total energy  :   -32.7829535 Eh     change       -0.2617695E-04 Eh
   gradient norm :     0.0042173 Eh/α   predicted    -0.2264284E-04 ( -13.50%)
   displ. norm   :     0.0251578 α      lambda       -0.1982879E-04
   maximum displ.:     0.0192605 α      in ANC's #1, #5, #13, ...
 * RMSD in coord.:     0.7029103 α      energy gain  -0.2369432E-01 Eh

generating ANC from model Hessian ...
Using Lindh-Hessian (1995)
 Shifting diagonal of input Hessian by    8.3547716648319642E-003
 Lowest  eigenvalues of input Hessian
    0.000000    0.000000    0.000000    0.000000    0.000000    0.000000
    0.010000    0.011779    0.012891    0.015719    0.023744    0.024102
    0.027565    0.029001    0.033589    0.042743    0.053382    0.054361
 Highest eigenvalues
    1.705025    1.924661    2.002858    2.044848    2.184248    2.365213


........................................................................
.............................. CYCLE   21 ..............................
........................................................................

 iter      E             dE          RMSdq      gap      omega  full diag
   1    -33.2463491 -0.332463E+02  0.139E-02    3.75       0.0  T
   2    -33.2463493 -0.277779E-06  0.841E-03    3.75       2.7  T
   3    -33.2463493  0.362967E-07  0.330E-03    3.75       6.8  T
   4    -33.2463494 -0.934090E-07  0.533E-04    3.75      41.9  T
   5    -33.2463494 -0.147720E-08  0.304E-04    3.75      73.5  T
     SCC iter.                  ...        0 min,  0.003 sec
     gradient                   ...        0 min,  0.001 sec
 * total energy  :   -32.7829655 Eh     change       -0.1196325E-04 Eh
   gradient norm :     0.0017419 Eh/α   predicted     0.0000000E+00 (-100.00%)
   displ. norm   :     0.0214266 α      lambda       -0.6770104E-05
   maximum displ.:     0.0137236 α      in ANC's #1, #2, #13, ...

........................................................................
.............................. CYCLE   22 ..............................
........................................................................

 iter      E             dE          RMSdq      gap      omega  full diag
   1    -33.2466118 -0.332466E+02  0.104E-02    3.75       0.0  T
   2    -33.2466119 -0.489817E-07  0.620E-03    3.75       3.6  T
   3    -33.2466119  0.209648E-07  0.149E-03    3.75      15.0  T
   4    -33.2466119 -0.295019E-07  0.296E-04    3.75      75.6  T
   5    -33.2466119 -0.773277E-09  0.140E-04    3.75     159.8  T
     SCC iter.                  ...        0 min,  0.003 sec
     gradient                   ...        0 min,  0.002 sec
 * total energy  :   -32.7829726 Eh     change       -0.7143427E-05 Eh
   gradient norm :     0.0005973 Eh/α   predicted    -0.3647630E-05 ( -48.94%)
   displ. norm   :     0.0316637 α      lambda       -0.4202398E-05
   maximum displ.:     0.0218233 α      in ANC's #1, #2, #5, ...

........................................................................
.............................. CYCLE   23 ..............................
........................................................................

 iter      E             dE          RMSdq      gap      omega  full diag
   1    -33.2466042 -0.332466E+02  0.120E-02    3.75       0.0  T
   2    -33.2466042 -0.390984E-07  0.708E-03    3.75       3.2  T
   3    -33.2466042  0.365277E-07  0.176E-03    3.75      12.7  T
   4    -33.2466043 -0.461907E-07  0.301E-04    3.75      74.4  T
   5    -33.2466043 -0.793783E-09  0.136E-04    3.75     164.6  T
     SCC iter.                  ...        0 min,  0.003 sec
     gradient                   ...        0 min,  0.002 sec
 * total energy  :   -32.7829771 Eh     change       -0.4444098E-05 Eh
   gradient norm :     0.0006374 Eh/α   predicted    -0.2104454E-05 ( -52.65%)
   displ. norm   :     0.0465409 α      lambda       -0.4264668E-05
   maximum displ.:     0.0296096 α      in ANC's #2, #1, #5, ...

   *** GEOMETRY OPTIMIZATION CONVERGED AFTER 23 ITERATIONS ***

------------------------------------------------------------------------
 total energy gain   :        -0.0237179 Eh      -14.8832 kcal/mol
 total RMSD          :         0.7059814 a0        0.3736 Å
 total power (kW/mol):        -2.7074466 (step) -355.9135 (real)
------------------------------------------------------------------------

 ANCopt (total)                0 d,  0 h,  0 min,  0.175 sec
 optimizer setup                ...        0 min,  0.001 sec (  0.393%)
 model hessian                  ...        0 min,  0.009 sec (  5.246%)
 ANC generation                 ...        0 min,  0.001 sec (  0.811%)
 coordinate transformation      ...        0 min,  0.000 sec (  0.073%)
 single point calculation       ...        0 min,  0.145 sec ( 82.897%)
 optimization log               ...        0 min,  0.002 sec (  1.424%)
 hessian update                 ...        0 min,  0.000 sec (  0.240%)
 rational function              ...        0 min,  0.013 sec (  7.552%)

================
 final structure:
================
20
 xtb: 6.6.0 (conda-forge)
C            3.67147501248143       -0.45181925032504       -0.23809915620531
C            2.27597727916139       -0.74172046597925        0.28338295879050
O            2.04560841059731       -1.58389968693026        1.11967553825040
N            1.33348808537751        0.04873112416720       -0.30668889507679
C           -0.05007372199509        0.08935053488468       -0.08950164759687
C           -0.70486259558192       -0.76502090806046        0.79431333125118
C           -2.07029292876579       -0.67161145021876        0.96567614536638
C           -2.81031248098587        0.27288141191469        0.26141766438278
C           -2.15991644358376        1.12413169389108       -0.62284487019435
C           -0.79232600292775        1.03135220297133       -0.79558223137848
O           -4.15574294146716        0.32860064402499        0.46583509882104
H            4.38969478507669       -1.03906842065175        0.32644642156247
H            3.73976793809663       -0.72489027451066       -1.28931262800029
H            3.90776487315390        0.60499327692408       -0.13215255507016
H            1.66480434250117        0.71550888798642       -0.99039430003191
H           -0.13728995398796       -1.49643468990224        1.34368309957548
H           -2.58537638784265       -1.32841874148069        1.64765772489101
H           -2.72423643773773        1.86227698334701       -1.17763895831587
H           -0.29750131573438        1.69996078575420       -1.48652717511787
H           -4.54044951583609        1.02509634219345       -0.07924556590377

 Bond Distances (Angstroems)
 ---------------------------
C1-C2=1.5177         C1-H12=1.0860        C1-H13=1.0882        C1-H14=1.0881        C2-C1=1.5177         C2-O3=1.2090         
C2-N4=1.3643         O3-C2=1.2090         N4-C2=1.3643         N4-C5=1.4011         N4-H15=1.0108        C5-N4=1.4011         
C5-C6=1.3928         C5-C10=1.3917        C6-C5=1.3928         C6-C7=1.3793         C6-H16=1.0765        C7-C6=1.3793         
C7-C8=1.3913         C7-H17=1.0779        C8-C7=1.3913         C8-C9=1.3891         C8-O11=1.3620        C9-C8=1.3891         
C9-C10=1.3816        C9-H18=1.0822        C10-C5=1.3917        C10-C9=1.3816        C10-H19=1.0813       O11-C8=1.3620        
O11-H20=0.9645       H12-C1=1.0860        H13-C1=1.0882        H14-C1=1.0881        H15-N4=1.0108        H16-C6=1.0765        
H17-C7=1.0779        H18-C9=1.0822        H19-C10=1.0813       H20-O11=0.9645       
 C  H  Rav=1.0829 sigma=0.0044  Rmin=1.0765  Rmax=1.0882     7
 C  C  Rav=1.4062 sigma=0.0458  Rmin=1.3793  Rmax=1.5177     7
 N  H  Rav=1.0108 sigma=0.0000  Rmin=1.0108  Rmax=1.0108     1
 N  C  Rav=1.3827 sigma=0.0184  Rmin=1.3643  Rmax=1.4011     2
 O  H  Rav=0.9645 sigma=0.0000  Rmin=0.9645  Rmax=0.9645     1
 O  C  Rav=1.2855 sigma=0.0765  Rmin=1.2090  Rmax=1.3620     2

 selected bond angles (degree)
 --------------------
H12-C1-C2=109.04               H13-C1-C2=109.98               H13-C1-H12=108.96              H14-C1-C2=110.59               
H14-C1-H12=109.33              H14-C1-H13=108.91              O3-C2-C1=123.09                N4-C2-C1=112.08                
N4-C2-O3=124.83                C5-N4-C2=129.19                H15-N4-C2=116.63               H15-N4-C5=114.17               
C6-C5-N4=123.01                C10-C5-N4=117.88               C10-C5-C6=119.11               C7-C6-C5=120.18                
H16-C6-C5=119.52               H16-C6-C7=120.30               C8-C7-C6=120.64                H17-C7-C6=120.69               
H17-C7-C8=118.67               C9-C8-C7=119.29                O11-C8-C7=118.50               O11-C8-C9=122.21               
C10-C9-C8=120.13               H18-C9-C8=120.01               H18-C9-C10=119.86              C9-C10-C5=120.66               
H19-C10-C5=119.91              H19-C10-C9=119.43              

 selected dihedral angles (degree)
 ---------------------------------
O3-C2-C1-H12=354.46           O3-C2-C1-H13=113.88           O3-C2-C1-H14=234.22           N4-C2-C1-H12=174.82           
N4-C2-C1-H13=294.24           N4-C2-C1-H14= 54.57           C5-N4-C2-C1=180.51            C5-N4-C2-O3=  0.87            
H15-N4-C2-C1=359.48           H15-N4-C2-O3=179.84           C6-C5-N4-C2=357.76            C6-C5-N4-H15=178.77           
C10-C5-N4-C2=177.75           C10-C5-N4-H15=358.76          C7-C6-C5-N4=179.83            C7-C6-C5-C10=359.84           
H16-C6-C5-N4=359.98           H16-C6-C5-C10=179.98          C8-C7-C6-C5=  0.00            C8-C7-C6-H16=179.86           
H17-C7-C6-C5=180.02           H17-C7-C6-H16=359.87          C9-C8-C7-C6=  0.13            C9-C8-C7-H17=180.13           
O11-C8-C7-C6=180.11           O11-C8-C7-H17=  0.10          C10-C9-C8-C7=359.88           C10-C9-C8-O11=179.90          
H18-C9-C8-C7=179.92           H18-C9-C8-O11=359.94          C9-C10-C5-N4=180.18           C9-C10-C5-C6=  0.18           
H19-C10-C5-N4=  0.12          H19-C10-C5-C6=180.11          C5-C10-C9-C8=359.96           C5-C10-C9-H18=179.92          
H19-C10-C9-C8=180.03          H19-C10-C9-H18=  0.00         
           -------------------------------------------------
          |                Final Singlepoint                |
           -------------------------------------------------

          ...................................................
          :                      SETUP                      :
          :.................................................:
          :  # basis functions                  53          :
          :  # atomic orbitals                  53          :
          :  # shells                           31          :
          :  # electrons                        58          :
          :  max. iterations                   250          :
          :  Hamiltonian                  GFN2-xTB          :
          :  restarted?                      false          :
          :  GBSA solvation                  false          :
          :  PC potential                    false          :
          :  electronic temp.          300.0000000     K    :
          :  accuracy                    1.0000000          :
          :  -> integral cutoff          0.2500000E+02      :
          :  -> integral neglect         0.1000000E-07      :
          :  -> SCF convergence          0.1000000E-05 Eh   :
          :  -> wf. convergence          0.1000000E-03 e    :
          :  Broyden damping             0.4000000          :
          ...................................................

 iter      E             dE          RMSdq      gap      omega  full diag
   1    -33.2466043 -0.332466E+02  0.580E-05    3.75       0.0  T
   2    -33.2466043 -0.142748E-10  0.334E-05    3.75     670.4  T
   3    -33.2466043 -0.498090E-11  0.200E-05    3.75    1116.6  T

   *** convergence criteria satisfied after 3 iterations ***

         #    Occupation            Energy/Eh            Energy/eV
      -------------------------------------------------------------
         1        2.0000           -0.7105858             -19.3360
       ...           ...                  ...                  ...
        23        2.0000           -0.4742755             -12.9057
        24        2.0000           -0.4603002             -12.5254
        25        2.0000           -0.4324538             -11.7677
        26        2.0000           -0.4282507             -11.6533
        27        2.0000           -0.4087489             -11.1226
        28        2.0000           -0.3935281             -10.7084
        29        2.0000           -0.3706400             -10.0856 (HOMO)
        30                         -0.2326496              -6.3307 (LUMO)
        31                         -0.2269132              -6.1746
        32                         -0.1862473              -5.0680
        33                         -0.0856253              -2.3300
        34                          0.0084674               0.2304
       ...                                ...                  ...
        53                          0.6773389              18.4313
      -------------------------------------------------------------
                  HL-Gap            0.1379903 Eh            3.7549 eV
             Fermi-level           -0.3016448 Eh           -8.2082 eV

 SCC (total)                   0 d,  0 h,  0 min,  0.004 sec
 SCC setup                      ...        0 min,  0.000 sec (  1.791%)
 Dispersion                     ...        0 min,  0.000 sec (  1.722%)
 classical contributions        ...        0 min,  0.000 sec (  0.387%)
 integral evaluation            ...        0 min,  0.001 sec ( 12.767%)
 iterations                     ...        0 min,  0.002 sec ( 43.882%)
 molecular gradient             ...        0 min,  0.002 sec ( 37.215%)
 printout                       ...        0 min,  0.000 sec (  1.935%)

         :::::::::::::::::::::::::::::::::::::::::::::::::::::
         ::                     SUMMARY                     ::
         :::::::::::::::::::::::::::::::::::::::::::::::::::::
         :: total energy             -32.782977059702 Eh    ::
         :: gradient norm              0.000636978810 Eh/a0 ::
         :: HOMO-LUMO gap              3.754908088583 eV    ::
         ::.................................................::
         :: SCC energy               -33.246604257101 Eh    ::
         :: -> isotropic ES            0.057422894178 Eh    ::
         :: -> anisotropic ES          0.004342596914 Eh    ::
         :: -> anisotropic XC          0.009570227389 Eh    ::
         :: -> dispersion             -0.016032570910 Eh    ::
         :: repulsion energy           0.463673824301 Eh    ::
         :: add. restraining           0.000000000000 Eh    ::
         :: total charge              -0.000000000000 e     ::
         :::::::::::::::::::::::::::::::::::::::::::::::::::::

           -------------------------------------------------
          |                Property Printout                |
           -------------------------------------------------

    * Orbital Energies and Occupations

         #    Occupation            Energy/Eh            Energy/eV
      -------------------------------------------------------------
         1        2.0000           -0.7105858             -19.3360
       ...           ...                  ...                  ...
        17        2.0000           -0.4986869             -13.5700
        18        2.0000           -0.4926106             -13.4046
        19        2.0000           -0.4919985             -13.3880
        20        2.0000           -0.4847468             -13.1906
        21        2.0000           -0.4801058             -13.0643
        22        2.0000           -0.4747485             -12.9186
        23        2.0000           -0.4742755             -12.9057
        24        2.0000           -0.4603002             -12.5254
        25        2.0000           -0.4324538             -11.7677
        26        2.0000           -0.4282507             -11.6533
        27        2.0000           -0.4087489             -11.1226
        28        2.0000           -0.3935281             -10.7084
        29        2.0000           -0.3706400             -10.0856 (HOMO)
        30                         -0.2326496              -6.3307 (LUMO)
        31                         -0.2269132              -6.1746
        32                         -0.1862473              -5.0680
        33                         -0.0856253              -2.3300
        34                          0.0084674               0.2304
        35                          0.0730051               1.9866
        36                          0.0790073               2.1499
        37                          0.1259888               3.4283
        38                          0.1487845               4.0486
        39                          0.1529215               4.1612
        40                          0.1762382               4.7957
       ...                                ...                  ...
        53                          0.6773389              18.4313
      -------------------------------------------------------------
                  HL-Gap            0.1379903 Eh            3.7549 eV
             Fermi-level           -0.3016448 Eh           -8.2082 eV

     #   Z          covCN         q      C6AA      α(0)
     1   6 C        3.758    -0.145    23.360     6.891
     2   6 C        2.745     0.280    22.252     7.724
     3   8 O        0.858    -0.413    21.945     6.281
     4   7 N        2.697    -0.163    24.534     7.356
     5   6 C        2.904     0.065    26.552     8.449
     6   6 C        2.921    -0.047    29.168     8.857
     7   6 C        2.920    -0.051    29.279     8.873
     8   6 C        2.845     0.140    24.944     8.185
     9   6 C        2.918    -0.070    29.735     8.942
    10   6 C        2.926    -0.056    29.393     8.891
    11   8 O        1.659    -0.392    20.691     6.141
    12   1 H        0.925     0.073     2.054     2.241
    13   1 H        0.925     0.058     2.224     2.332
    14   1 H        0.925     0.053     2.279     2.361
    15   1 H        0.860     0.173     1.252     1.753
    16   1 H        0.926     0.083     1.952     2.185
    17   1 H        0.926     0.058     2.222     2.331
    18   1 H        0.925     0.029     2.605     2.524
    19   1 H        0.925     0.028     2.612     2.527
    20   1 H        0.805     0.298     0.726     1.339

 Mol. C6AA /au·bohr⁶  :       4615.661222
 Mol. C8AA /au·bohr⁸  :     108991.105595
 Mol. α(0) /au        :        106.183316


Wiberg/Mayer (AO) data.
largest (>0.10) Wiberg bond orders for each atom

 ---------------------------------------------------------------------------
     #   Z sym  total        # sym  WBO       # sym  WBO       # sym  WBO
 ---------------------------------------------------------------------------
     1   6 C    3.993 --    12 H    0.983     2 C    0.977    14 H    0.973
                            13 H    0.969
     2   6 C    3.947 --     3 O    1.715     4 N    1.197     1 C    0.977
     3   8 O    2.032 --     2 C    1.715     4 N    0.168
     4   7 N    3.487 --     2 C    1.197     5 C    1.067    15 H    0.937
                             3 O    0.168
     5   6 C    3.961 --    10 C    1.372     6 C    1.362     4 N    1.067
     6   6 C    3.986 --     7 C    1.468     5 C    1.362    16 H    0.959
                             9 C    0.102
     7   6 C    3.988 --     6 C    1.468     8 C    1.359    17 H    0.967
                            10 C    0.105
     8   6 C    3.938 --     9 C    1.371     7 C    1.359    11 O    1.068
     9   6 C    3.987 --    10 C    1.451     8 C    1.371    18 H    0.967
                             6 C    0.102
    10   6 C    3.989 --     9 C    1.451     5 C    1.372    19 H    0.967
                             7 C    0.105
    11   8 O    2.111 --     8 C    1.068    20 H    0.890
    12   1 H    0.994 --     1 C    0.983
    13   1 H    0.996 --     1 C    0.969
    14   1 H    0.997 --     1 C    0.973
    15   1 H    0.969 --     4 N    0.937
    16   1 H    0.993 --     6 C    0.959
    17   1 H    0.996 --     7 C    0.967
    18   1 H    0.999 --     9 C    0.967
    19   1 H    0.999 --    10 C    0.967
    20   1 H    0.911 --    11 O    0.890
 ---------------------------------------------------------------------------

Topologies differ in total number of bonds
Writing topology from bond orders to xtbtopo.mol

molecular dipole:
                 x           y           z       tot (Debye)
 q only:        0.074       1.131      -1.080
   full:        0.176       1.561      -1.493       5.508
molecular quadrupole (traceless):
                xx          xy          yy          xz          yz          zz
 q only:        5.576       0.822      -3.041      -2.431       1.165      -2.535
  q+dip:        6.516      -0.376      -3.088      -2.135      -0.846      -3.428
   full:        5.933      -0.085      -3.015      -1.824       1.357      -2.919

           -------------------------------------------------
          |                Geometry Summary                 |
           -------------------------------------------------

      molecular mass/u    :      151.1628670
   center of mass at/Å    :       -0.2867844      -0.1284883       0.1715408
  moments of inertia/u·Å² :        0.1394632E+03   0.9135674E+03   0.1049794E+04
rotational constants/cm⁻¹ :        0.1208751E+00   0.1845253E-01   0.1605804E-01

 * 19 selected distances

     #   Z          #   Z                                           value/Å
     2   6 C        3   8 O                                       1.2090166
     2   6 C        4   7 N                                       1.3642891
     4   7 N        5   6 C                                       1.4010938 (max)
     5   6 C        6   6 C                                       1.3927772
     6   6 C        7   6 C                                       1.3793081
     7   6 C        8   6 C                                       1.3912858
     8   6 C        9   6 C                                       1.3890870
     5   6 C       10   6 C                                       1.3917096
     9   6 C       10   6 C                                       1.3815753
     8   6 C       11   8 O                                       1.3620112
     1   6 C       12   1 H                                       1.0860079
     1   6 C       13   1 H                                       1.0882471
     1   6 C       14   1 H                                       1.0880765
     4   7 N       15   1 H                                       1.0108493
     6   6 C       16   1 H                                       1.0765278
     7   6 C       17   1 H                                       1.0778710
     9   6 C       18   1 H                                       1.0821794
    10   6 C       19   1 H                                       1.0813390
    11   8 O       20   1 H                                       0.9644784 (min)

 * 6 distinct bonds (by element types)

   Z      Z             #   av. dist./Å        max./Å        min./Å
   1 H    6 C           7     1.0828927     1.0882471     1.0765278
   6 C    6 C           6     1.3876238     1.3927772     1.3793081
   1 H    7 N           1     1.0108493     1.0108493     1.0108493
   6 C    7 N           2     1.3826915     1.4010938     1.3642891
   1 H    8 O           1     0.9644784     0.9644784     0.9644784
   6 C    8 O           2     1.2855139     1.3620112     1.2090166


optimized geometry written to: xtbopt.xyz


           -------------------------------------------------
          | TOTAL ENERGY              -32.782977059702 Eh   |
          | GRADIENT NORM               0.000636978810 Eh/α |
          | HOMO-LUMO GAP               3.754908088583 eV   |
           -------------------------------------------------

------------------------------------------------------------------------
 * finished run on 2024/09/24 at 21:07:34.718     
------------------------------------------------------------------------
 total:
 * wall-time:     0 d,  0 h,  0 min,  0.647 sec
 *  cpu-time:     0 d,  0 h,  0 min,  3.121 sec
 * ratio c/w:     4.821 speedup
 SCF:
 * wall-time:     0 d,  0 h,  0 min,  0.051 sec
 *  cpu-time:     0 d,  0 h,  0 min,  0.234 sec
 * ratio c/w:     4.586 speedup
 ANC optimizer:
 * wall-time:     0 d,  0 h,  0 min,  0.181 sec
 *  cpu-time:     0 d,  0 h,  0 min,  1.355 sec
 * ratio c/w:     7.496 speedup

