      -----------------------------------------------------------      
     |                   =====================                   |     
     |                           x T B                           |     
     |                   =====================                   |     
     |                         S. Grimme                         |     
     |          Mulliken Center for Theoretical Chemistry        |     
     |                    University of Bonn                     |     
      -----------------------------------------------------------      

   * xtb version 6.6.0 (conda-forge) compiled by 'runner@Mac-1676020848589.local' on 2023-02-10

   xtb is free software: you can redistribute it and/or modify it under
   the terms of the GNU Lesser General Public License as published by
   the Free Software Foundation, either version 3 of the License, or
   (at your option) any later version.
   
   xtb is distributed in the hope that it will be useful,
   but WITHOUT ANY WARRANTY; without even the implied warranty of
   MERCHANTABILITY or FITNESS FOR A PARTICULAR PURPOSE.  See the
   GNU Lesser General Public License for more details.
   
   Cite this work as:
   * C. Bannwarth, E. Caldeweyher, S. Ehlert, A. Hansen, P. Pracht,
     J. Seibert, S. Spicher, S. Grimme, WIREs Comput. Mol. Sci., 2020, 11,
     e01493. DOI: 10.1002/wcms.1493
   
   for GFN2-xTB:
   * C. Bannwarth, S. Ehlert and S. Grimme., J. Chem. Theory Comput., 2019,
     15, 1652-1671. DOI: 10.1021/acs.jctc.8b01176
   for GFN1-xTB:
   * S. Grimme, C. Bannwarth, P. Shushkov, J. Chem. Theory Comput., 2017,
     13, 1989-2009. DOI: 10.1021/acs.jctc.7b00118
   for GFN0-xTB:
   * P. Pracht, E. Caldeweyher, S. Ehlert, S. Grimme, ChemRxiv, 2019, preprint.
     DOI: 10.26434/chemrxiv.8326202.v1
   for GFN-FF:
   * S. Spicher and S. Grimme, Angew. Chem. Int. Ed., 2020, 59, 15665-15673.
     DOI: 10.1002/anie.202004239
   
   for ALPB and GBSA implicit solvation:
   * S. Ehlert, M. Stahn, S. Spicher, S. Grimme, J. Chem. Theory Comput.,
     2021, 17, 4250-4261. DOI: 10.1021/acs.jctc.1c00471
   
   for DFT-D4:
   * E. Caldeweyher, C. Bannwarth and S. Grimme, J. Chem. Phys., 2017,
     147, 034112. DOI: 10.1063/1.4993215
   * E. Caldeweyher, S. Ehlert, A. Hansen, H. Neugebauer, S. Spicher,
     C. Bannwarth and S. Grimme, J. Chem. Phys., 2019, 150, 154122.
     DOI: 10.1063/1.5090222
   * E. Caldeweyher, J.-M. Mewes, S. Ehlert and S. Grimme, Phys. Chem. Chem. Phys.
     2020, 22, 8499-8512. DOI: 10.1039/D0CP00502A
   
   for sTDA-xTB:
   * S. Grimme and C. Bannwarth, J. Chem. Phys., 2016, 145, 054103.
     DOI: 10.1063/1.4959605
   
   in the mass-spec context:
   * V. Asgeirsson, C. Bauer and S. Grimme, Chem. Sci., 2017, 8, 4879.
     DOI: 10.1039/c7sc00601b
   * J. Koopman and S. Grimme, ACS Omega 2019, 4, 12, 15120-15133.
     DOI: 10.1021/acsomega.9b02011
   
   for metadynamics refer to:
   * S. Grimme, J. Chem. Theory Comput., 2019, 155, 2847-2862
     DOI: 10.1021/acs.jctc.9b00143
   
   for SPH calculations refer to:
   * S. Spicher and S. Grimme, J. Chem. Theory Comput., 2021, 17, 1701-1714
     DOI: 10.1021/acs.jctc.0c01306
   
   with help from (in alphabetical order)
   P. Atkinson, C. Bannwarth, F. Bohle, G. Brandenburg, E. Caldeweyher
   M. Checinski, S. Dohm, S. Ehlert, S. Ehrlich, I. Gerasimov, C. Hölzer
   A. Katbashev, J. Koopman, C. Lavigne, S. Lehtola, F. März, M. Müller,
   F. Musil, H. Neugebauer, J. Pisarek, C. Plett, P. Pracht, F. Pultar,
   J. Seibert, P. Shushkov, S. Spicher, M. Stahn, M. Steiner, T. Strunk,
   J. Stückrath, T. Rose, and J. Unsleber
   
 * started run on 2024/09/06 at 19:23:04.864     

           -------------------------------------------------
          |                Calculation Setup                |
           -------------------------------------------------

          program call               : xtb input_molecule.xyz --gfnff --chrg 0 --uhf 2 --opt
          coordinate file            : input_molecule.xyz
          omp threads                :                     8

   ID    Z sym.   atoms
    1    6 C      1-9
    2    8 O      10, 11, 13
    3    7 N      12
    4    1 H      14-24
          GFN-FF topology read from file successfully!
           ------------------------------------------------- 
          |                   G F N - F F                   |
          |          A general generic force-field          |
          |                  Version 1.0.3                  | 
           ------------------------------------------------- 
          Number of HB bonds (bound hydrogen)     335
          Number of HB bonds (unbound hydrogen)   58
          Number of XB bonds                      0

 E+G (total)                   0 d,  0 h,  0 min,  0.311 sec
 distance/D3 list               ...        0 min,  0.000 sec (  0.001%)
 non bonded repulsion           ...        0 min,  0.000 sec (  0.079%)
 dCN                            ...        0 min,  0.000 sec (  0.043%)
 EEQ energy and q               ...        0 min,  0.309 sec ( 99.257%)
 D3                             ...        0 min,  0.000 sec (  0.056%)
 EEQ gradient                   ...        0 min,  0.000 sec (  0.017%)
 bonds                          ...        0 min,  0.001 sec (  0.183%)
 bend and torsion               ...        0 min,  0.000 sec (  0.076%)
 bonded ATM                     ...        0 min,  0.000 sec (  0.029%)
 HB/XB (incl list setup)        ...        0 min,  0.001 sec (  0.242%)

         :::::::::::::::::::::::::::::::::::::::::::::::::::::
         ::                     SUMMARY                     ::
         :::::::::::::::::::::::::::::::::::::::::::::::::::::
         :: total energy              -4.347556581768 Eh    ::
         :: gradient norm              0.118574355989 Eh/a0 ::
         ::.................................................::
         :: bond energy               -4.390337117777 Eh    ::
         :: angle energy               0.012323812152 Eh    ::
         :: torsion energy             0.001962879511 Eh    ::
         :: repulsion energy           0.258189039882 Eh    ::
         :: electrostat energy        -0.210598210752 Eh    ::
         :: dispersion energy         -0.016708599514 Eh    ::
         :: HB energy                 -0.000082753997 Eh    ::
         :: XB energy                  0.000000000000 Eh    ::
         :: bonded atm energy         -0.002305631273 Eh    ::
         :: external energy            0.000000000000 Eh    ::
         :: add. restraining           0.000000000000 Eh    ::
         :: total charge              -0.000000000000 e     ::
         :::::::::::::::::::::::::::::::::::::::::::::::::::::

      ----------------------------------------------------------- 
     |                   =====================                   |
     |                        A N C O P T                        |
     |                   =====================                   |
     |               Approximate Normal Coordinate               |
     |                Rational Function Optimizer                |
      ----------------------------------------------------------- 

          ...................................................
          :                      SETUP                      :
          :.................................................:
          :   optimization level            normal          :
          :   max. optcycles                   200          :
          :   ANC micro-cycles                  20          :
          :   degrees of freedom                66          :
          :.................................................:
          :   RF solver                   davidson          :
          :   write xtbopt.log                true          :
          :   linear?                        false          :
          :   energy convergence         0.5000000E-05 Eh   :
          :   grad. convergence          0.1000000E-02 Eh/α :
          :   maxmium RF displ.          1.0000000          :
          :   Hlow (freq-cutoff)         0.1000000E-01      :
          :   Hmax (freq-cutoff)         5.0000000          :
          :   S6 in model hess.         20.0000000          :
          ...................................................

generating ANC from model Hessian ...
Using GFN-FF Lindh-Hessian
 Shifting diagonal of input Hessian by    8.9299626446939194E-003
 Lowest  eigenvalues of input Hessian
    0.000000    0.000000    0.000000    0.000000    0.000000    0.000000
    0.010000    0.010330    0.011578    0.016429    0.021873    0.027503
    0.029937    0.031245    0.032917    0.037533    0.039252    0.047998
 Highest eigenvalues
    2.147882    2.169684    2.196498    2.513458    2.689789    2.754713


........................................................................
.............................. CYCLE    1 ..............................
........................................................................
 * total energy  :    -4.3475566 Eh     change        0.0000000E+00 Eh
   gradient norm :     0.1185744 Eh/α   predicted     0.0000000E+00 (    NaN%)
   displ. norm   :     0.2195576 α      lambda       -0.1493913E-01
   maximum displ.:     0.0792897 α      in ANC's #25, #16, #13, ...

........................................................................
.............................. CYCLE    2 ..............................
........................................................................
 * total energy  :    -4.3589179 Eh     change       -0.1136127E-01 Eh
   gradient norm :     0.0635773 Eh/α   predicted    -0.7832060E-02 ( -31.06%)
   displ. norm   :     0.2724173 α      lambda       -0.9751686E-02
   maximum displ.:     0.1054010 α      in ANC's #25, #28, #13, ...

........................................................................
.............................. CYCLE    3 ..............................
........................................................................
 * total energy  :    -4.3645736 Eh     change       -0.5655772E-02 Eh
   gradient norm :     0.0328569 Eh/α   predicted    -0.5238078E-02 (  -7.39%)
   displ. norm   :     0.1322766 α      lambda       -0.1725642E-02
   maximum displ.:     0.0491674 α      in ANC's #11, #3, #9, ...

........................................................................
.............................. CYCLE    4 ..............................
........................................................................
 * total energy  :    -4.3658520 Eh     change       -0.1278355E-02 Eh
   gradient norm :     0.0205054 Eh/α   predicted    -0.8779294E-03 ( -31.32%)
   displ. norm   :     0.1397001 α      lambda       -0.1040410E-02
   maximum displ.:     0.0714640 α      in ANC's #3, #11, #2, ...

........................................................................
.............................. CYCLE    5 ..............................
........................................................................
 * total energy  :    -4.3663904 Eh     change       -0.5383770E-03 Eh
   gradient norm :     0.0045425 Eh/α   predicted    -0.5304266E-03 (  -1.48%)
   displ. norm   :     0.0363484 α      lambda       -0.3595670E-04
   maximum displ.:     0.0272859 α      in ANC's #3, #2, #5, ...

........................................................................
.............................. CYCLE    6 ..............................
........................................................................
 * total energy  :    -4.3664189 Eh     change       -0.2850683E-04 Eh
   gradient norm :     0.0025117 Eh/α   predicted    -0.1800547E-04 ( -36.84%)
   displ. norm   :     0.0892155 α      lambda       -0.4963885E-04
   maximum displ.:     0.0667271 α      in ANC's #3, #2, #5, ...

........................................................................
.............................. CYCLE    7 ..............................
........................................................................
 * total energy  :    -4.3664549 Eh     change       -0.3602130E-04 Eh
   gradient norm :     0.0022642 Eh/α   predicted    -0.2502867E-04 ( -30.52%)
   displ. norm   :     0.0928295 α      lambda       -0.3420712E-04
   maximum displ.:     0.0676805 α      in ANC's #3, #2, #5, ...

........................................................................
.............................. CYCLE    8 ..............................
........................................................................
 * total energy  :    -4.3664845 Eh     change       -0.2965978E-04 Eh
   gradient norm :     0.0033217 Eh/α   predicted    -0.1725313E-04 ( -41.83%)
   displ. norm   :     0.1386935 α      lambda       -0.5267751E-04
   maximum displ.:     0.0981008 α      in ANC's #3, #2, #5, ...

........................................................................
.............................. CYCLE    9 ..............................
........................................................................
 * total energy  :    -4.3665321 Eh     change       -0.4752151E-04 Eh
   gradient norm :     0.0037315 Eh/α   predicted    -0.2684804E-04 ( -43.50%)
   displ. norm   :     0.2500973 α      lambda       -0.9255199E-04
   maximum displ.:     0.1749682 α      in ANC's #3, #2, #4, ...

........................................................................
.............................. CYCLE   10 ..............................
........................................................................
 * total energy  :    -4.3666128 Eh     change       -0.8073827E-04 Eh
   gradient norm :     0.0041726 Eh/α   predicted    -0.4918283E-04 ( -39.08%)
   displ. norm   :     0.3788250 α      lambda       -0.1281108E-03
   maximum displ.:     0.2643872 α      in ANC's #3, #2, #4, ...

........................................................................
.............................. CYCLE   11 ..............................
........................................................................
 * total energy  :    -4.3667104 Eh     change       -0.9756208E-04 Eh
   gradient norm :     0.0067079 Eh/α   predicted    -0.7325258E-04 ( -24.92%)
   displ. norm   :     0.3651289 α      lambda       -0.1259860E-03
   maximum displ.:     0.2546432 α      in ANC's #3, #2, #4, ...

........................................................................
.............................. CYCLE   12 ..............................
........................................................................
 * total energy  :    -4.3667981 Eh     change       -0.8772205E-04 Eh
   gradient norm :     0.0065877 Eh/α   predicted    -0.7139201E-04 ( -18.62%)
   displ. norm   :     0.1905599 α      lambda       -0.1183687E-03
   maximum displ.:     0.1303476 α      in ANC's #3, #2, #1, ...

........................................................................
.............................. CYCLE   13 ..............................
........................................................................
 * total energy  :    -4.3668580 Eh     change       -0.5989237E-04 Eh
   gradient norm :     0.0041519 Eh/α   predicted    -0.6133858E-04 (   2.41%)
   displ. norm   :     0.3506827 α      lambda       -0.9590787E-04
   maximum displ.:     0.2532905 α      in ANC's #3, #2, #4, ...

........................................................................
.............................. CYCLE   14 ..............................
........................................................................
 * total energy  :    -4.3668973 Eh     change       -0.3932888E-04 Eh
   gradient norm :     0.0057385 Eh/α   predicted    -0.5389513E-04 (  37.04%)
   displ. norm   :     0.0849663 α      lambda       -0.5480039E-04
   maximum displ.:     0.0612554 α      in ANC's #2, #3, #1, ...

........................................................................
.............................. CYCLE   15 ..............................
........................................................................
 * total energy  :    -4.3669331 Eh     change       -0.3579207E-04 Eh
   gradient norm :     0.0023699 Eh/α   predicted    -0.2760008E-04 ( -22.89%)
   displ. norm   :     0.0898741 α      lambda       -0.3628660E-04
   maximum displ.:     0.0689551 α      in ANC's #1, #3, #4, ...

........................................................................
.............................. CYCLE   16 ..............................
........................................................................
 * total energy  :    -4.3669619 Eh     change       -0.2881436E-04 Eh
   gradient norm :     0.0018901 Eh/α   predicted    -0.1829688E-04 ( -36.50%)
   displ. norm   :     0.1581989 α      lambda       -0.3006307E-04
   maximum displ.:     0.1167266 α      in ANC's #1, #3, #4, ...

........................................................................
.............................. CYCLE   17 ..............................
........................................................................
 * total energy  :    -4.3669970 Eh     change       -0.3503525E-04 Eh
   gradient norm :     0.0023371 Eh/α   predicted    -0.1520403E-04 ( -56.60%)
   displ. norm   :     0.0823196 α      lambda       -0.2114892E-04
   maximum displ.:     0.0619058 α      in ANC's #1, #3, #5, ...

........................................................................
.............................. CYCLE   18 ..............................
........................................................................
 * total energy  :    -4.3670164 Eh     change       -0.1943946E-04 Eh
   gradient norm :     0.0019466 Eh/α   predicted    -0.1064891E-04 ( -45.22%)
   displ. norm   :     0.1446897 α      lambda       -0.2848764E-04
   maximum displ.:     0.1167498 α      in ANC's #1, #3, #5, ...

........................................................................
.............................. CYCLE   19 ..............................
........................................................................
 * total energy  :    -4.3670527 Eh     change       -0.3628091E-04 Eh
   gradient norm :     0.0018138 Eh/α   predicted    -0.1437883E-04 ( -60.37%)
   displ. norm   :     0.1574720 α      lambda       -0.2732129E-04
   maximum displ.:     0.1314705 α      in ANC's #1, #3, #5, ...

........................................................................
.............................. CYCLE   20 ..............................
........................................................................
 * total energy  :    -4.3670886 Eh     change       -0.3588893E-04 Eh
   gradient norm :     0.0019452 Eh/α   predicted    -0.1381584E-04 ( -61.50%)
   displ. norm   :     0.1614604 α      lambda       -0.2763835E-04
   maximum displ.:     0.1421292 α      in ANC's #1, #3, #5, ...
 * RMSD in coord.:     0.5342874 α      energy gain  -0.1953198E-01 Eh

generating ANC from model Hessian ...
Using GFN-FF Lindh-Hessian
 Shifting diagonal of input Hessian by    8.6734601543850959E-003
 Lowest  eigenvalues of input Hessian
    0.000000    0.000000    0.000000    0.000000    0.000000    0.000000
    0.010000    0.010449    0.011754    0.018714    0.024671    0.029705
    0.031561    0.036244    0.037242    0.042266    0.042639    0.054041
 Highest eigenvalues
    2.287825    2.337374    2.410698    2.852975    2.893690    2.918576


........................................................................
.............................. CYCLE   21 ..............................
........................................................................
 * total energy  :    -4.3671242 Eh     change       -0.3566901E-04 Eh
   gradient norm :     0.0015434 Eh/α   predicted     0.0000000E+00 (-100.00%)
   displ. norm   :     0.0341857 α      lambda       -0.7588979E-05
   maximum displ.:     0.0312746 α      in ANC's #1, #4, #2, ...

........................................................................
.............................. CYCLE   22 ..............................
........................................................................
 * total energy  :    -4.3671361 Eh     change       -0.1190113E-04 Eh
   gradient norm :     0.0007261 Eh/α   predicted    -0.4528968E-05 ( -61.95%)
   displ. norm   :     0.0665603 α      lambda       -0.1398060E-04
   maximum displ.:     0.0574302 α      in ANC's #1, #4, #5, ...

........................................................................
.............................. CYCLE   23 ..............................
........................................................................
 * total energy  :    -4.3671533 Eh     change       -0.1716372E-04 Eh
   gradient norm :     0.0006878 Eh/α   predicted    -0.7004231E-05 ( -59.19%)
   displ. norm   :     0.0826539 α      lambda       -0.1231534E-04
   maximum displ.:     0.0697721 α      in ANC's #1, #4, #5, ...

........................................................................
.............................. CYCLE   24 ..............................
........................................................................
 * total energy  :    -4.3671686 Eh     change       -0.1534286E-04 Eh
   gradient norm :     0.0011015 Eh/α   predicted    -0.6177400E-05 ( -59.74%)
   displ. norm   :     0.0884030 α      lambda       -0.1098898E-04
   maximum displ.:     0.0731488 α      in ANC's #1, #5, #4, ...

........................................................................
.............................. CYCLE   25 ..............................
........................................................................
 * total energy  :    -4.3671832 Eh     change       -0.1455005E-04 Eh
   gradient norm :     0.0012161 Eh/α   predicted    -0.5515354E-05 ( -62.09%)
   displ. norm   :     0.1122498 α      lambda       -0.1358521E-04
   maximum displ.:     0.0911882 α      in ANC's #1, #5, #4, ...

........................................................................
.............................. CYCLE   26 ..............................
........................................................................
 * total energy  :    -4.3672013 Eh     change       -0.1815572E-04 Eh
   gradient norm :     0.0011694 Eh/α   predicted    -0.6840024E-05 ( -62.33%)
   displ. norm   :     0.1552003 α      lambda       -0.1778105E-04
   maximum displ.:     0.1249705 α      in ANC's #1, #5, #4, ...

........................................................................
.............................. CYCLE   27 ..............................
........................................................................
 * total energy  :    -4.3672240 Eh     change       -0.2263250E-04 Eh
   gradient norm :     0.0012896 Eh/α   predicted    -0.9004714E-05 ( -60.21%)
   displ. norm   :     0.1746386 α      lambda       -0.1743380E-04
   maximum displ.:     0.1410663 α      in ANC's #1, #5, #4, ...

........................................................................
.............................. CYCLE   28 ..............................
........................................................................
 * total energy  :    -4.3672448 Eh     change       -0.2086295E-04 Eh
   gradient norm :     0.0015923 Eh/α   predicted    -0.8835812E-05 ( -57.65%)
   displ. norm   :     0.1492861 α      lambda       -0.1346306E-04
   maximum displ.:     0.1222606 α      in ANC's #1, #4, #5, ...

........................................................................
.............................. CYCLE   29 ..............................
........................................................................
 * total energy  :    -4.3672610 Eh     change       -0.1616702E-04 Eh
   gradient norm :     0.0013430 Eh/α   predicted    -0.6800602E-05 ( -57.94%)
   displ. norm   :     0.1374163 α      lambda       -0.1119795E-04
   maximum displ.:     0.1130285 α      in ANC's #1, #4, #5, ...

........................................................................
.............................. CYCLE   30 ..............................
........................................................................
 * total energy  :    -4.3672743 Eh     change       -0.1331965E-04 Eh
   gradient norm :     0.0008829 Eh/α   predicted    -0.5647229E-05 ( -57.60%)
   displ. norm   :     0.1408701 α      lambda       -0.8700536E-05
   maximum displ.:     0.1147862 α      in ANC's #1, #4, #5, ...

........................................................................
.............................. CYCLE   31 ..............................
........................................................................
 * total energy  :    -4.3672845 Eh     change       -0.1018258E-04 Eh
   gradient norm :     0.0007827 Eh/α   predicted    -0.4393164E-05 ( -56.86%)
   displ. norm   :     0.1192290 α      lambda       -0.6262004E-05
   maximum displ.:     0.0972193 α      in ANC's #1, #3, #4, ...

........................................................................
.............................. CYCLE   32 ..............................
........................................................................
 * total energy  :    -4.3672915 Eh     change       -0.6976487E-05 Eh
   gradient norm :     0.0005825 Eh/α   predicted    -0.3153577E-05 ( -54.80%)
   displ. norm   :     0.1240909 α      lambda       -0.4335216E-05
   maximum displ.:     0.0992165 α      in ANC's #1, #3, #4, ...

........................................................................
.............................. CYCLE   33 ..............................
........................................................................
 * total energy  :    -4.3672958 Eh     change       -0.4292116E-05 Eh
   gradient norm :     0.0007928 Eh/α   predicted    -0.2187384E-05 ( -49.04%)
   displ. norm   :     0.0868700 α      lambda       -0.3655560E-05
   maximum displ.:     0.0693980 α      in ANC's #1, #3, #4, ...

   *** GEOMETRY OPTIMIZATION CONVERGED AFTER 33 ITERATIONS ***

------------------------------------------------------------------------
 total energy gain   :        -0.0197392 Eh      -12.3865 kcal/mol
 total RMSD          :         0.7146278 a0        0.3782 Å
 total power (kW/mol):        -1.5704624 (step)-1101.0023 (real)
------------------------------------------------------------------------

 ANCopt (total)                0 d,  0 h,  0 min,  0.047 sec
 optimizer setup                ...        0 min,  0.001 sec (  1.551%)
 model hessian                  ...        0 min,  0.004 sec (  7.930%)
 ANC generation                 ...        0 min,  0.007 sec ( 14.184%)
 coordinate transformation      ...        0 min,  0.000 sec (  0.493%)
 single point calculation       ...        0 min,  0.023 sec ( 48.544%)
 optimization log               ...        0 min,  0.005 sec ( 10.775%)
 hessian update                 ...        0 min,  0.002 sec (  4.192%)
 rational function              ...        0 min,  0.004 sec (  8.572%)

================
 final structure:
================
24
 xtb: 6.6.0 (conda-forge)
C            1.38877909380540       -1.27799445506905        0.94947142948456
C            2.61130063587088       -0.73240129323619        1.26043769266797
C            3.00654825852336        0.49122220869523        0.72037605403715
C            2.12812728215511        1.14770508171712       -0.14229140307613
C            0.90735822942781        0.59532005432055       -0.44640116242342
C            0.52091177277055       -0.62593228015128        0.08571285335615
C           -0.81610761571975       -1.21070962698362       -0.25362352138017
C           -1.98384117934679       -0.52526556313049        0.45961481906605
C           -2.13652464570251        0.91102109387255        0.01379953046620
O           -1.98038736168026        1.19213546934531       -1.15330240837509
O           -2.46823857684223        1.80702802313124        0.96748064995385
N           -3.23413030770201       -1.22977075670196        0.23087505930364
O            4.23912759823963        1.01846798081702        1.05325576485424
H            1.09465324617265       -2.22051652560489        1.37801501891359
H            3.28667819673328       -1.23490808835001        1.92975668259573
H            2.41414976482273        2.09570630414108       -0.56150928167158
H            0.21871636780372        1.11950837633269       -1.08739680331692
H           -0.97821603671109       -1.13501735062150       -1.33314232298687
H           -0.82621933625443       -2.28023049272050       -0.02267800411377
H           -1.78434498640469       -0.52611648690807        1.54229780668916
H           -2.54908869012464        2.67787905158130        0.53288021813859
H           -3.98516169155461       -0.74462008720164        0.70303467095071
H           -3.44309711602747       -1.19381977727533       -0.75738757180268
H            4.36890709774466        1.88100914000110        0.60372422866906

 Bond Distances (Angstroems)
 ---------------------------
C1-C2=1.3744         C1-C6=1.3872         C1-H14=1.0763        C2-C1=1.3744         C2-C3=1.3947         C2-H15=1.0755        
C3-C2=1.3947         C3-C4=1.3953         C3-O13=1.3813        C4-C3=1.3953         C4-C5=1.3740         C4-H16=1.0753        
C5-C4=1.3740         C5-C6=1.3871         C5-H17=1.0770        C6-C1=1.3872         C6-C5=1.3871         C6-C7=1.4982         
C7-C6=1.4982         C7-C8=1.5304         C7-H18=1.0942        C7-H19=1.0942        C8-C7=1.5304         C8-C9=1.5116         
C8-N12=1.4532        C8-H20=1.1009        C9-C8=1.5116         C9-O10=1.2106        C9-O11=1.3500        O10-C9=1.2106        
O11-C9=1.3500        O11-H21=0.9766       N12-C8=1.4532        N12-H22=1.0111       N12-H23=1.0108       O13-C3=1.3813        
O13-H24=0.9813       H14-C1=1.0763        H15-C2=1.0755        H16-C4=1.0753        H17-C5=1.0770        H18-C7=1.0942        
H19-C7=1.0942        H20-C8=1.1009        H21-O11=0.9766       H22-N12=1.0111       H23-N12=1.0108       H24-O13=0.9813       
 C  H  Rav=1.0848 sigma=0.0103  Rmin=1.0753  Rmax=1.1009     7
 C  C  Rav=1.4281 sigma=0.0612  Rmin=1.3740  Rmax=1.5304     9
 N  H  Rav=1.0109 sigma=0.0002  Rmin=1.0108  Rmax=1.0111     2
 N  C  Rav=1.4532 sigma=0.0000  Rmin=1.4532  Rmax=1.4532     1
 O  H  Rav=0.9789 sigma=0.0023  Rmin=0.9766  Rmax=0.9813     2
 O  C  Rav=1.3140 sigma=0.0742  Rmin=1.2106  Rmax=1.3813     3

 selected bond angles (degree)
 --------------------
C6-C1-C2=120.71                H14-C1-C2=120.04               H14-C1-C6=119.25               C3-C2-C1=120.85                
H15-C2-C1=120.93               H15-C2-C3=118.23               C4-C3-C2=118.28                O13-C3-C2=119.63               
O13-C3-C4=122.09               C5-C4-C3=120.47                H16-C4-C3=119.23               H16-C4-C5=120.30               
C6-C5-C4=121.10                H17-C5-C4=120.28               H17-C5-C6=118.60               C5-C6-C1=118.58                
C7-C6-C1=121.05                C7-C6-C5=120.36                C8-C7-C6=113.61                H18-C7-C6=109.19               
H18-C7-C8=108.41               H19-C7-C6=110.00               H19-C7-C8=109.41               H19-C7-H18=105.93              
C9-C8-C7=111.42                N12-C8-C7=111.47               N12-C8-C9=109.11               H20-C8-C7=108.65               
H20-C8-C9=108.00               H20-C8-N12=108.08              O10-C9-C8=119.47               O11-C9-C8=116.56               
O11-C9-O10=123.96              

 selected dihedral angles (degree)
 ---------------------------------
C3-C2-C1-C6=  0.27            C3-C2-C1-H14=180.34           H15-C2-C1-C6=179.99           H15-C2-C1-H14=  0.06          
C4-C3-C2-C1=  0.08            C4-C3-C2-H15=180.35           O13-C3-C2-C1=179.80           O13-C3-C2-H15=  0.07          
C5-C4-C3-C2=  0.00            C5-C4-C3-O13=180.27           H16-C4-C3-C2=179.53           H16-C4-C3-O13=359.82          
C6-C5-C4-C3=359.59            C6-C5-C4-H16=180.05           H17-C5-C4-C3=178.03           H17-C5-C4-H16=358.49          
C5-C6-C1-C2=359.33            C5-C6-C1-H14=179.26           C7-C6-C1-C2=180.28            C7-C6-C1-H14=  0.21           
C1-C6-C5-C4=  0.74            C1-C6-C5-H17=182.28           C7-C6-C5-C4=179.80            C7-C6-C5-H17=  1.34           
C8-C7-C6-C1=104.09            C8-C7-C6-C5=285.06            H18-C7-C6-C1=225.22           H18-C7-C6-C5= 46.19           
H19-C7-C6-C1=341.06           H19-C7-C6-C5=162.03           C9-C8-C7-C6= 65.02            C9-C8-C7-H18=303.46           
C9-C8-C7-H19=188.37           N12-C8-C7-C6=187.17           N12-C8-C7-H18= 65.60          N12-C8-C7-H19=310.52          
H20-C8-C7-C6=306.16           H20-C8-C7-H18=184.59          H20-C8-C7-H19= 69.50          O10-C9-C8-C7= 39.73           
O10-C9-C8-N12=276.23          O10-C9-C8-H20=158.97          O11-C9-C8-C7=218.60           O11-C9-C8-N12= 95.11          
O11-C9-C8-H20=337.85          
           -------------------------------------------------
          |                Final Singlepoint                |
           -------------------------------------------------
         :::::::::::::::::::::::::::::::::::::::::::::::::::::
         ::                     SUMMARY                     ::
         :::::::::::::::::::::::::::::::::::::::::::::::::::::
         :: total energy              -4.367295780165 Eh    ::
         :: gradient norm              0.000792905505 Eh/a0 ::
         ::.................................................::
         :: bond energy               -4.438765376955 Eh    ::
         :: angle energy               0.003048023504 Eh    ::
         :: torsion energy             0.002312970107 Eh    ::
         :: repulsion energy           0.308212967852 Eh    ::
         :: electrostat energy        -0.221695281694 Eh    ::
         :: dispersion energy         -0.016875109678 Eh    ::
         :: HB energy                 -0.000598091628 Eh    ::
         :: XB energy                  0.000000000000 Eh    ::
         :: bonded atm energy         -0.002935881673 Eh    ::
         :: external energy            0.000000000000 Eh    ::
         :: add. restraining           0.000000000000 Eh    ::
         :: total charge              -0.000000000000 e     ::
         :::::::::::::::::::::::::::::::::::::::::::::::::::::

           -------------------------------------------------
          |                Property Printout                |
           -------------------------------------------------
           -------------------------------------------------
          |                Geometry Summary                 |
           -------------------------------------------------

      molecular mass/u    :      181.1888893
   center of mass at/Å    :        0.0923198       0.1696769       0.2862021
  moments of inertia/u·Å² :        0.3023209E+03   0.1152852E+04   0.1304337E+04
rotational constants/cm⁻¹ :        0.5576072E-01   0.1462255E-01   0.1292429E-01

 * 22 selected distances

     #   Z          #   Z                                           value/Å
     1   6 C        2   6 C                                       1.3743839
     2   6 C        3   6 C                                       1.3946835
     3   6 C        4   6 C                                       1.3952737
     4   6 C        5   6 C                                       1.3740049
     1   6 C        6   6 C                                       1.3872484
     5   6 C        6   6 C                                       1.3870630
     7   6 C        8   6 C                                       1.5304067 (max)
     9   6 C       10   8 O                                       1.2105913
     9   6 C       11   8 O                                       1.3499521
     8   6 C       12   7 N                                       1.4532284
     3   6 C       13   8 O                                       1.3813215
     1   6 C       14   1 H                                       1.0763400
     2   6 C       15   1 H                                       1.0754702
     4   6 C       16   1 H                                       1.0752949
     5   6 C       17   1 H                                       1.0769757
     7   6 C       18   1 H                                       1.0942438
     7   6 C       19   1 H                                       1.0942181
     8   6 C       20   1 H                                       1.1009097
    11   8 O       21   1 H                                       0.9766248 (min)
    12   7 N       22   1 H                                       1.0111153
    12   7 N       23   1 H                                       1.0107536
    13   8 O       24   1 H                                       0.9812740

 * 6 distinct bonds (by element types)

   Z      Z             #   av. dist./Å        max./Å        min./Å
   1 H    6 C           7     1.0847789     1.1009097     1.0752949
   6 C    6 C           7     1.4061520     1.5304067     1.3740049
   1 H    7 N           2     1.0109345     1.0111153     1.0107536
   6 C    7 N           1     1.4532284     1.4532284     1.4532284
   1 H    8 O           2     0.9789494     0.9812740     0.9766248
   6 C    8 O           3     1.3139550     1.3813215     1.2105913


optimized geometry written to: xtbopt.xyz


           -------------------------------------------------
          | TOTAL ENERGY               -4.367295780165 Eh   |
          | GRADIENT NORM               0.000792905505 Eh/α |
           -------------------------------------------------

------------------------------------------------------------------------
 * finished run on 2024/09/06 at 19:23:05.239     
------------------------------------------------------------------------
 total:
 * wall-time:     0 d,  0 h,  0 min,  0.373 sec
 *  cpu-time:     0 d,  0 h,  0 min,  1.208 sec
 * ratio c/w:     3.239 speedup
 SCF:
 * wall-time:     0 d,  0 h,  0 min,  0.312 sec
 *  cpu-time:     0 d,  0 h,  0 min,  0.988 sec
 * ratio c/w:     3.168 speedup
 ANC optimizer:
 * wall-time:     0 d,  0 h,  0 min,  0.050 sec
 *  cpu-time:     0 d,  0 h,  0 min,  0.191 sec
 * ratio c/w:     3.780 speedup

