      -----------------------------------------------------------      
     |                   =====================                   |     
     |                           x T B                           |     
     |                   =====================                   |     
     |                         S. Grimme                         |     
     |          Mulliken Center for Theoretical Chemistry        |     
     |                    University of Bonn                     |     
      -----------------------------------------------------------      

   * xtb version 6.6.0 (conda-forge) compiled by 'runner@Mac-1676020848589.local' on 2023-02-10

   xtb is free software: you can redistribute it and/or modify it under
   the terms of the GNU Lesser General Public License as published by
   the Free Software Foundation, either version 3 of the License, or
   (at your option) any later version.
   
   xtb is distributed in the hope that it will be useful,
   but WITHOUT ANY WARRANTY; without even the implied warranty of
   MERCHANTABILITY or FITNESS FOR A PARTICULAR PURPOSE.  See the
   GNU Lesser General Public License for more details.
   
   Cite this work as:
   * C. Bannwarth, E. Caldeweyher, S. Ehlert, A. Hansen, P. Pracht,
     J. Seibert, S. Spicher, S. Grimme, WIREs Comput. Mol. Sci., 2020, 11,
     e01493. DOI: 10.1002/wcms.1493
   
   for GFN2-xTB:
   * C. Bannwarth, S. Ehlert and S. Grimme., J. Chem. Theory Comput., 2019,
     15, 1652-1671. DOI: 10.1021/acs.jctc.8b01176
   for GFN1-xTB:
   * S. Grimme, C. Bannwarth, P. Shushkov, J. Chem. Theory Comput., 2017,
     13, 1989-2009. DOI: 10.1021/acs.jctc.7b00118
   for GFN0-xTB:
   * P. Pracht, E. Caldeweyher, S. Ehlert, S. Grimme, ChemRxiv, 2019, preprint.
     DOI: 10.26434/chemrxiv.8326202.v1
   for GFN-FF:
   * S. Spicher and S. Grimme, Angew. Chem. Int. Ed., 2020, 59, 15665-15673.
     DOI: 10.1002/anie.202004239
   
   for ALPB and GBSA implicit solvation:
   * S. Ehlert, M. Stahn, S. Spicher, S. Grimme, J. Chem. Theory Comput.,
     2021, 17, 4250-4261. DOI: 10.1021/acs.jctc.1c00471
   
   for DFT-D4:
   * E. Caldeweyher, C. Bannwarth and S. Grimme, J. Chem. Phys., 2017,
     147, 034112. DOI: 10.1063/1.4993215
   * E. Caldeweyher, S. Ehlert, A. Hansen, H. Neugebauer, S. Spicher,
     C. Bannwarth and S. Grimme, J. Chem. Phys., 2019, 150, 154122.
     DOI: 10.1063/1.5090222
   * E. Caldeweyher, J.-M. Mewes, S. Ehlert and S. Grimme, Phys. Chem. Chem. Phys.
     2020, 22, 8499-8512. DOI: 10.1039/D0CP00502A
   
   for sTDA-xTB:
   * S. Grimme and C. Bannwarth, J. Chem. Phys., 2016, 145, 054103.
     DOI: 10.1063/1.4959605
   
   in the mass-spec context:
   * V. Asgeirsson, C. Bauer and S. Grimme, Chem. Sci., 2017, 8, 4879.
     DOI: 10.1039/c7sc00601b
   * J. Koopman and S. Grimme, ACS Omega 2019, 4, 12, 15120-15133.
     DOI: 10.1021/acsomega.9b02011
   
   for metadynamics refer to:
   * S. Grimme, J. Chem. Theory Comput., 2019, 155, 2847-2862
     DOI: 10.1021/acs.jctc.9b00143
   
   for SPH calculations refer to:
   * S. Spicher and S. Grimme, J. Chem. Theory Comput., 2021, 17, 1701-1714
     DOI: 10.1021/acs.jctc.0c01306
   
   with help from (in alphabetical order)
   P. Atkinson, C. Bannwarth, F. Bohle, G. Brandenburg, E. Caldeweyher
   M. Checinski, S. Dohm, S. Ehlert, S. Ehrlich, I. Gerasimov, C. Hölzer
   A. Katbashev, J. Koopman, C. Lavigne, S. Lehtola, F. März, M. Müller,
   F. Musil, H. Neugebauer, J. Pisarek, C. Plett, P. Pracht, F. Pultar,
   J. Seibert, P. Shushkov, S. Spicher, M. Stahn, M. Steiner, T. Strunk,
   J. Stückrath, T. Rose, and J. Unsleber
   
 * started run on 2024/09/13 at 17:42:32.438     

           -------------------------------------------------
          |                Calculation Setup                |
           -------------------------------------------------

          program call               : xtb thioaspirin.xyz --opt --alpb acetonitrile --gfn2
          coordinate file            : thioaspirin.xyz
          omp threads                :                     8

   ID    Z sym.   atoms
    1    6 C      1, 2, 5-11
    2    8 O      3, 12, 13
    3   16 S      4
    4    1 H      14-21

           -------------------------------------------------
          |                 G F N 2 - x T B                 |
           -------------------------------------------------

        Reference                      10.1021/acs.jctc.8b01176
      * Hamiltonian:
        H0-scaling (s, p, d)           1.850000    2.230000    2.230000
        zeta-weighting                 0.500000
      * Dispersion:
        s8                             2.700000
        a1                             0.520000
        a2                             5.000000
        s9                             5.000000
      * Repulsion:
        kExp                           1.500000    1.000000
        rExp                           1.000000
      * Coulomb:
        alpha                          2.000000
        third order                    shell-resolved
        anisotropic                    true
        a3                             3.000000
        a5                             4.000000
        cn-shift                       1.200000
        cn-exp                         4.000000
        max-rad                        5.000000

      * Solvation model:               ALPB
        Solvent                        acetonitrile
        Parameter file                 internal GFN2-xTB/ALPB
        Dielectric constant                3.7500E+01
        Reference state                gsolv [1 M gas/solution]
        Free energy shift                  5.1987E-03 Eh       3.2622E+00 kcal/mol
        Temperature                        2.9815E+02 K
        Density                            7.8600E-01 kg/L
        Solvent mass                       4.1050E+01 g/mol
        Interaction kernel             P16
        Born radius scaling (c1)           1.7214E+00
        Born radii integrator          GBOBC
        Born offset                        0.0000E+00 a0       0.0000E+00 AA
        H-bond correction              true
        Ion screening                  false
        Surface tension                    1.0000E-05 Eh       1.5569E+01 dyn/cm
        Grid points                               230 per atom

          ...................................................
          :                      SETUP                      :
          :.................................................:
          :  # basis functions                  66          :
          :  # atomic orbitals                  65          :
          :  # shells                           35          :
          :  # electrons                        68          :
          :  max. iterations                   250          :
          :  Hamiltonian                  GFN2-xTB          :
          :  restarted?                      false          :
          :  GBSA solvation                   true          :
          :  PC potential                    false          :
          :  electronic temp.          300.0000000     K    :
          :  accuracy                    1.0000000          :
          :  -> integral cutoff          0.2500000E+02      :
          :  -> integral neglect         0.1000000E-07      :
          :  -> SCF convergence          0.1000000E-05 Eh   :
          :  -> wf. convergence          0.1000000E-03 e    :
          :  Broyden damping             0.4000000          :
          ...................................................

 iter      E             dE          RMSdq      gap      omega  full diag
   1    -39.1116885 -0.391117E+02  0.565E+00    2.90       0.0  T
   2    -39.1885433 -0.768548E-01  0.304E+00    2.22       1.0  T
   3    -39.1888066 -0.263291E-03  0.174E+00    2.13       1.0  T
   4    -39.2073252 -0.185186E-01  0.314E-01    1.99       1.0  T
   5    -39.2078359 -0.510682E-03  0.173E-01    2.01       1.0  T
   6    -39.2080570 -0.221143E-03  0.814E-02    2.03       1.0  T
   7    -39.2080997 -0.426475E-04  0.231E-02    2.03       1.0  T
   8    -39.2081049 -0.520287E-05  0.117E-02    2.03       1.9  T
   9    -39.2081052 -0.266117E-06  0.464E-03    2.03       4.7  T
  10    -39.2081053 -0.124449E-06  0.180E-03    2.03      12.1  T
  11    -39.2081053 -0.366169E-07  0.846E-04    2.03      25.8  T
  12    -39.2081053 -0.358168E-08  0.393E-04    2.03      55.5  T

   *** convergence criteria satisfied after 12 iterations ***

         #    Occupation            Energy/Eh            Energy/eV
      -------------------------------------------------------------
         1        2.0000           -0.7402729             -20.1438
       ...           ...                  ...                  ...
        28        2.0000           -0.4589009             -12.4873
        29        2.0000           -0.4490283             -12.2187
        30        2.0000           -0.4430058             -12.0548
        31        2.0000           -0.4354495             -11.8492
        32        2.0000           -0.4280588             -11.6481
        33        2.0000           -0.4168514             -11.3431
        34        2.0000           -0.3786840             -10.3045 (HOMO)
        35                         -0.3041948              -8.2776 (LUMO)
        36                         -0.2915986              -7.9348
        37                         -0.2603087              -7.0834
        38                         -0.2199725              -5.9858
        39                         -0.2092205              -5.6932
       ...                                ...                  ...
        65                          0.5919844              16.1087
      -------------------------------------------------------------
                  HL-Gap            0.0744892 Eh            2.0270 eV
             Fermi-level           -0.3414394 Eh           -9.2910 eV

 SCC (total)                   0 d,  0 h,  0 min,  0.051 sec
 SCC setup                      ...        0 min,  0.004 sec (  8.789%)
 Dispersion                     ...        0 min,  0.000 sec (  0.822%)
 classical contributions        ...        0 min,  0.000 sec (  0.442%)
 integral evaluation            ...        0 min,  0.004 sec (  8.110%)
 iterations                     ...        0 min,  0.038 sec ( 74.742%)
 molecular gradient             ...        0 min,  0.003 sec (  6.814%)
 printout                       ...        0 min,  0.000 sec (  0.238%)

         :::::::::::::::::::::::::::::::::::::::::::::::::::::
         ::                     SUMMARY                     ::
         :::::::::::::::::::::::::::::::::::::::::::::::::::::
         :: total energy             -38.779198880824 Eh    ::
         :: total w/o Gsasa/hb       -38.760101032104 Eh    ::
         :: gradient norm              0.127989109476 Eh/a0 ::
         :: HOMO-LUMO gap              2.026953846234 eV    ::
         ::.................................................::
         :: SCC energy               -39.208105315852 Eh    ::
         :: -> isotropic ES            0.094929564701 Eh    ::
         :: -> anisotropic ES         -0.004237995648 Eh    ::
         :: -> anisotropic XC          0.013885906558 Eh    ::
         :: -> dispersion             -0.021546727353 Eh    ::
         :: -> Gsolv                  -0.030111945605 Eh    ::
         ::    -> Gelec               -0.011014096885 Eh    ::
         ::    -> Gsasa               -0.019532300509 Eh    ::
         ::    -> Ghb                 -0.004764202962 Eh    ::
         ::    -> Gshift               0.005198654751 Eh    ::
         :: repulsion energy           0.428713407800 Eh    ::
         :: add. restraining           0.000000000000 Eh    ::
         :: total charge               0.000000000000 e     ::
         :::::::::::::::::::::::::::::::::::::::::::::::::::::

      ----------------------------------------------------------- 
     |                   =====================                   |
     |                        A N C O P T                        |
     |                   =====================                   |
     |               Approximate Normal Coordinate               |
     |                Rational Function Optimizer                |
      ----------------------------------------------------------- 

          ...................................................
          :                      SETUP                      :
          :.................................................:
          :   optimization level            normal          :
          :   max. optcycles                   200          :
          :   ANC micro-cycles                  20          :
          :   degrees of freedom                57          :
          :.................................................:
          :   RF solver                   davidson          :
          :   write xtbopt.log                true          :
          :   linear?                        false          :
          :   energy convergence         0.5000000E-05 Eh   :
          :   grad. convergence          0.1000000E-02 Eh/α :
          :   maxmium RF displ.          1.0000000          :
          :   Hlow (freq-cutoff)         0.1000000E-01      :
          :   Hmax (freq-cutoff)         5.0000000          :
          :   S6 in model hess.         20.0000000          :
          ...................................................

generating ANC from model Hessian ...
Using Lindh-Hessian (1995)
 Shifting diagonal of input Hessian by    9.1963004024591902E-003
 Lowest  eigenvalues of input Hessian
    0.000000    0.000000    0.000000    0.000000    0.000000    0.000000
    0.010000    0.010138    0.011336    0.011850    0.015242    0.015949
    0.017916    0.021943    0.026997    0.028392    0.030715    0.041440
 Highest eigenvalues
    1.689817    1.773597    1.904963    1.933426    2.046121    2.056477


........................................................................
.............................. CYCLE    1 ..............................
........................................................................

 iter      E             dE          RMSdq      gap      omega  full diag
   1    -39.2081053 -0.392081E+02  0.141E-04    2.03       0.0  T
   2    -39.2081053 -0.113971E-09  0.919E-05    2.03     237.3  T
   3    -39.2081053 -0.946301E-10  0.536E-05    2.03     407.3  T
     SCC iter.                  ...        0 min,  0.003 sec
     gradient                   ...        0 min,  0.002 sec
 * total energy  :   -38.7791989 Eh     change       -0.3333867E-09 Eh
   gradient norm :     0.1279933 Eh/α   predicted     0.0000000E+00 (-100.00%)
   displ. norm   :     0.3056544 α      lambda       -0.2086609E-01
   maximum displ.:     0.1336571 α      in ANC's #14, #25, #15, ...

........................................................................
.............................. CYCLE    2 ..............................
........................................................................

 iter      E             dE          RMSdq      gap      omega  full diag
   1    -39.2605817 -0.392606E+02  0.304E-01    2.20       0.0  T
   2    -39.2609027 -0.321045E-03  0.178E-01    2.14       1.0  T
   3    -39.2609164 -0.136859E-04  0.847E-02    2.13       1.0  T
   4    -39.2609406 -0.241956E-04  0.266E-02    2.12       1.0  T
   5    -39.2609436 -0.305799E-05  0.104E-02    2.12       2.1  T
   6    -39.2609453 -0.168679E-05  0.497E-03    2.12       4.4  T
   7    -39.2609455 -0.175566E-06  0.208E-03    2.12      10.5  T
   8    -39.2609455 -0.102333E-07  0.118E-03    2.12      18.6  T
   9    -39.2609455 -0.683974E-08  0.482E-04    2.12      45.3  T
  10    -39.2609455 -0.595172E-09  0.191E-04    2.12     114.2  T
     SCC iter.                  ...        0 min,  0.008 sec
     gradient                   ...        0 min,  0.002 sec
 * total energy  :   -38.7939668 Eh     change       -0.1476794E-01 Eh
   gradient norm :     0.0523340 Eh/α   predicted    -0.1141223E-01 ( -22.72%)
   displ. norm   :     0.2577680 α      lambda       -0.6683554E-02
   maximum displ.:     0.1331188 α      in ANC's #15, #25, #14, ...

........................................................................
.............................. CYCLE    3 ..............................
........................................................................

 iter      E             dE          RMSdq      gap      omega  full diag
   1    -39.2867849 -0.392868E+02  0.228E-01    2.24       0.0  T
   2    -39.2869681 -0.183197E-03  0.128E-01    2.20       1.0  T
   3    -39.2869747 -0.654156E-05  0.585E-02    2.18       1.0  T
   4    -39.2869804 -0.575737E-05  0.211E-02    2.18       1.0  T
   5    -39.2869828 -0.231925E-05  0.588E-03    2.18       3.7  T
   6    -39.2869831 -0.323367E-06  0.315E-03    2.18       6.9  T
   7    -39.2869831 -0.573297E-07  0.132E-03    2.18      16.5  T
   8    -39.2869831 -0.273241E-08  0.772E-04    2.18      28.2  T
   9    -39.2869831 -0.334144E-08  0.339E-04    2.18      64.3  T
     SCC iter.                  ...        0 min,  0.007 sec
     gradient                   ...        0 min,  0.002 sec
 * total energy  :   -38.7975415 Eh     change       -0.3574652E-02 Eh
   gradient norm :     0.0171680 Eh/α   predicted    -0.3564258E-02 (  -0.29%)
   displ. norm   :     0.1196027 α      lambda       -0.5530340E-03
   maximum displ.:     0.0639220 α      in ANC's #3, #6, #15, ...

........................................................................
.............................. CYCLE    4 ..............................
........................................................................

 iter      E             dE          RMSdq      gap      omega  full diag
   1    -39.2852098 -0.392852E+02  0.919E-02    2.17       0.0  T
   2    -39.2852179 -0.808771E-05  0.512E-02    2.17       1.0  T
   3    -39.2852170  0.919063E-06  0.161E-02    2.17       1.4  T
   4    -39.2852184 -0.145844E-05  0.644E-03    2.17       3.4  T
   5    -39.2852187 -0.304701E-06  0.207E-03    2.17      10.6  T
   6    -39.2852187 -0.888956E-08  0.113E-03    2.17      19.3  T
   7    -39.2852188 -0.682608E-08  0.567E-04    2.17      38.5  T
   8    -39.2852188 -0.705448E-09  0.282E-04    2.17      77.4  T
     SCC iter.                  ...        0 min,  0.007 sec
     gradient                   ...        0 min,  0.002 sec
 * total energy  :   -38.7979461 Eh     change       -0.4046003E-03 Eh
   gradient norm :     0.0093655 Eh/α   predicted    -0.2807049E-03 ( -30.62%)
   displ. norm   :     0.2172300 α      lambda       -0.4951254E-03
   maximum displ.:     0.1462540 α      in ANC's #3, #2, #7, ...

........................................................................
.............................. CYCLE    5 ..............................
........................................................................

 iter      E             dE          RMSdq      gap      omega  full diag
   1    -39.2823430 -0.392823E+02  0.142E-01    2.17       0.0  T
   2    -39.2823539 -0.108331E-04  0.808E-02    2.17       1.0  T
   3    -39.2823512  0.261229E-05  0.217E-02    2.16       1.0  T
   4    -39.2823549 -0.364400E-05  0.897E-03    2.17       2.4  T
   5    -39.2823556 -0.682546E-06  0.313E-03    2.16       7.0  T
   6    -39.2823556 -0.230223E-07  0.184E-03    2.16      11.9  T
   7    -39.2823556 -0.235434E-07  0.862E-04    2.16      25.3  T
   8    -39.2823556 -0.174210E-08  0.387E-04    2.16      56.4  T
     SCC iter.                  ...        0 min,  0.006 sec
     gradient                   ...        0 min,  0.002 sec
 * total energy  :   -38.7982387 Eh     change       -0.2926350E-03 Eh
   gradient norm :     0.0080612 Eh/α   predicted    -0.2592732E-03 ( -11.40%)
   displ. norm   :     0.1704233 α      lambda       -0.2206478E-03
   maximum displ.:     0.1309722 α      in ANC's #3, #2, #4, ...

........................................................................
.............................. CYCLE    6 ..............................
........................................................................

 iter      E             dE          RMSdq      gap      omega  full diag
   1    -39.2817398 -0.392817E+02  0.115E-01    2.16       0.0  T
   2    -39.2817418 -0.192395E-05  0.663E-02    2.16       1.0  T
   3    -39.2817413  0.465682E-06  0.106E-02    2.16       2.1  T
   4    -39.2817421 -0.756502E-06  0.502E-03    2.17       4.3  T
   5    -39.2817423 -0.209736E-06  0.176E-03    2.17      12.4  T
   6    -39.2817423 -0.329798E-08  0.897E-04    2.17      24.3  T
   7    -39.2817423 -0.167185E-08  0.486E-04    2.17      44.9  T
     SCC iter.                  ...        0 min,  0.006 sec
     gradient                   ...        0 min,  0.002 sec
 * total energy  :   -38.7984007 Eh     change       -0.1619937E-03 Eh
   gradient norm :     0.0092418 Eh/α   predicted    -0.1135363E-03 ( -29.91%)
   displ. norm   :     0.2218554 α      lambda       -0.2910348E-03
   maximum displ.:     0.1612046 α      in ANC's #3, #2, #1, ...

........................................................................
.............................. CYCLE    7 ..............................
........................................................................

 iter      E             dE          RMSdq      gap      omega  full diag
   1    -39.2827242 -0.392827E+02  0.135E-01    2.18       0.0  T
   2    -39.2827266 -0.241851E-05  0.784E-02    2.18       1.0  T
   3    -39.2827246  0.206695E-05  0.134E-02    2.18       1.6  T
   4    -39.2827271 -0.257802E-05  0.591E-03    2.18       3.7  T
   5    -39.2827275 -0.341824E-06  0.218E-03    2.18      10.0  T
   6    -39.2827275 -0.174988E-07  0.123E-03    2.18      17.7  T
   7    -39.2827275 -0.559953E-08  0.628E-04    2.18      34.8  T
   8    -39.2827275 -0.492520E-09  0.273E-04    2.18      80.0  T
     SCC iter.                  ...        0 min,  0.007 sec
     gradient                   ...        0 min,  0.002 sec
 * total energy  :   -38.7986638 Eh     change       -0.2631200E-03 Eh
   gradient norm :     0.0080830 Eh/α   predicted    -0.1526810E-03 ( -41.97%)
   displ. norm   :     0.5152528 α      lambda       -0.6736738E-03
   maximum displ.:     0.3655937 α      in ANC's #3, #2, #1, ...

........................................................................
.............................. CYCLE    8 ..............................
........................................................................

 iter      E             dE          RMSdq      gap      omega  full diag
   1    -39.2826254 -0.392826E+02  0.312E-01    2.19       0.0  T
   2    -39.2826449 -0.195574E-04  0.181E-01    2.21       1.0  T
   3    -39.2826167  0.282523E-04  0.431E-02    2.22       1.0  T
   4    -39.2826513 -0.345965E-04  0.122E-02    2.22       1.8  T
   5    -39.2826519 -0.664203E-06  0.529E-03    2.22       4.1  T
   6    -39.2826521 -0.123707E-06  0.258E-03    2.22       8.5  T
   7    -39.2826521 -0.485106E-07  0.129E-03    2.22      16.9  T
   8    -39.2826521 -0.286143E-08  0.652E-04    2.22      33.5  T
   9    -39.2826521 -0.125554E-08  0.187E-04    2.22     116.6  T
     SCC iter.                  ...        0 min,  0.007 sec
     gradient                   ...        0 min,  0.002 sec
 * total energy  :   -38.7992682 Eh     change       -0.6044248E-03 Eh
   gradient norm :     0.0129884 Eh/α   predicted    -0.4262745E-03 ( -29.47%)
   displ. norm   :     0.6967197 α      lambda       -0.1038079E-02
   maximum displ.:     0.4953119 α      in ANC's #3, #2, #1, ...

........................................................................
.............................. CYCLE    9 ..............................
........................................................................

 iter      E             dE          RMSdq      gap      omega  full diag
   1    -39.2808014 -0.392808E+02  0.405E-01    2.25       0.0  T
   2    -39.2808582 -0.568270E-04  0.232E-01    2.30       1.0  T
   3    -39.2807980  0.601437E-04  0.656E-02    2.31       1.0  T
   4    -39.2808719 -0.738214E-04  0.180E-02    2.32       1.2  T
   5    -39.2808743 -0.244540E-05  0.735E-03    2.31       3.0  T
   6    -39.2808745 -0.167025E-06  0.361E-03    2.31       6.0  T
   7    -39.2808746 -0.142458E-06  0.132E-03    2.31      16.5  T
   8    -39.2808746 -0.278553E-08  0.741E-04    2.31      29.5  T
   9    -39.2808746 -0.116589E-08  0.233E-04    2.31      93.5  T
     SCC iter.                  ...        0 min,  0.007 sec
     gradient                   ...        0 min,  0.002 sec
 * total energy  :   -38.8000380 Eh     change       -0.7697935E-03 Eh
   gradient norm :     0.0194806 Eh/α   predicted    -0.7709922E-03 (   0.16%)
   displ. norm   :     0.4478602 α      lambda       -0.1368927E-02
   maximum displ.:     0.2902484 α      in ANC's #3, #2, #1, ...

........................................................................
.............................. CYCLE   10 ..............................
........................................................................

 iter      E             dE          RMSdq      gap      omega  full diag
   1    -39.2894231 -0.392894E+02  0.240E-01    2.44       0.0  T
   2    -39.2894507 -0.275663E-04  0.139E-01    2.44       1.0  T
   3    -39.2894267  0.240415E-04  0.422E-02    2.46       1.0  T
   4    -39.2894571 -0.304372E-04  0.117E-02    2.45       1.9  T
   5    -39.2894581 -0.942487E-06  0.528E-03    2.45       4.1  T
   6    -39.2894582 -0.164828E-06  0.250E-03    2.45       8.7  T
   7    -39.2894583 -0.463952E-07  0.101E-03    2.45      21.7  T
   8    -39.2894583 -0.135682E-08  0.525E-04    2.45      41.6  T
   9    -39.2894583 -0.806310E-09  0.183E-04    2.45     119.2  T
     SCC iter.                  ...        0 min,  0.008 sec
     gradient                   ...        0 min,  0.002 sec
 * total energy  :   -38.8008227 Eh     change       -0.7846710E-03 Eh
   gradient norm :     0.0294418 Eh/α   predicted    -0.8217528E-03 (   4.73%)
   displ. norm   :     0.6020766 α      lambda       -0.2093167E-02
   maximum displ.:     0.4252364 α      in ANC's #3, #2, #1, ...

........................................................................
.............................. CYCLE   11 ..............................
........................................................................

 iter      E             dE          RMSdq      gap      omega  full diag
   1    -39.2834318 -0.392834E+02  0.458E-01    2.40       0.0  T
   2    -39.2839692 -0.537439E-03  0.240E-01    2.56       1.0  T
   3    -39.2839497  0.195369E-04  0.114E-01    2.54       1.0  T
   4    -39.2839797 -0.299712E-04  0.463E-02    2.56       1.0  T
   5    -39.2840126 -0.329278E-04  0.105E-02    2.56       2.1  T
   6    -39.2840130 -0.364355E-06  0.554E-03    2.55       3.9  T
   7    -39.2840133 -0.330990E-06  0.140E-03    2.55      15.6  T
   8    -39.2840133 -0.534575E-08  0.832E-04    2.55      26.2  T
   9    -39.2840133  0.257579E-09  0.369E-04    2.55      59.1  T
     SCC iter.                  ...        0 min,  0.007 sec
     gradient                   ...        0 min,  0.002 sec
 * total energy  :   -38.8019761 Eh     change       -0.1153375E-02 Eh
   gradient norm :     0.0283835 Eh/α   predicted    -0.1425969E-02 (  23.63%)
   displ. norm   :     0.3898185 α      lambda       -0.1780143E-02
   maximum displ.:     0.2539777 α      in ANC's #3, #2, #1, ...

........................................................................
.............................. CYCLE   12 ..............................
........................................................................

 iter      E             dE          RMSdq      gap      omega  full diag
   1    -39.2844906 -0.392845E+02  0.199E-01    2.64       0.0  T
   2    -39.2845065 -0.158752E-04  0.112E-01    2.66       1.0  T
   3    -39.2845035  0.298589E-05  0.239E-02    2.66       1.0  T
   4    -39.2845078 -0.436806E-05  0.112E-02    2.66       1.9  T
   5    -39.2845090 -0.112839E-05  0.370E-03    2.66       5.9  T
   6    -39.2845090 -0.112304E-07  0.174E-03    2.66      12.5  T
   7    -39.2845090 -0.341729E-07  0.768E-04    2.66      28.4  T
   8    -39.2845090 -0.393712E-09  0.250E-04    2.66      87.4  T
     SCC iter.                  ...        0 min,  0.007 sec
     gradient                   ...        0 min,  0.002 sec
 * total energy  :   -38.8033109 Eh     change       -0.1334844E-02 Eh
   gradient norm :     0.0198392 Eh/α   predicted    -0.1025330E-02 ( -23.19%)
   displ. norm   :     0.3789521 α      lambda       -0.2339709E-02
   maximum displ.:     0.2322730 α      in ANC's #2, #3, #18, ...

........................................................................
.............................. CYCLE   13 ..............................
........................................................................

 iter      E             dE          RMSdq      gap      omega  full diag
   1    -39.2962647 -0.392963E+02  0.226E-01    2.81       0.0  T
   2    -39.2963253 -0.606044E-04  0.138E-01    2.80       1.0  T
   3    -39.2963035  0.218759E-04  0.598E-02    2.81       1.0  T
   4    -39.2963464 -0.429022E-04  0.124E-02    2.81       1.8  T
   5    -39.2963464  0.418746E-08  0.619E-03    2.81       3.5  T
   6    -39.2963466 -0.252842E-06  0.323E-03    2.81       6.8  T
   7    -39.2963467 -0.874802E-07  0.151E-03    2.81      14.4  T
   8    -39.2963467 -0.942741E-09  0.521E-04    2.81      41.9  T
   9    -39.2963467 -0.167263E-08  0.186E-04    2.81     117.5  T
     SCC iter.                  ...        0 min,  0.007 sec
     gradient                   ...        0 min,  0.002 sec
 * total energy  :   -38.8039731 Eh     change       -0.6621677E-03 Eh
   gradient norm :     0.0271150 Eh/α   predicted    -0.1337860E-02 ( 102.04%)
   displ. norm   :     0.7192667 α      lambda       -0.2948684E-02
   maximum displ.:     0.4972452 α      in ANC's #2, #3, #1, ...

........................................................................
.............................. CYCLE   14 ..............................
........................................................................

 iter      E             dE          RMSdq      gap      omega  full diag
   1    -39.2835028 -0.392835E+02  0.388E-01    2.86       0.0  T
   2    -39.2837550 -0.252124E-03  0.209E-01    2.95       1.0  T
   3    -39.2837330  0.219703E-04  0.965E-02    2.93       1.0  T
   4    -39.2837841 -0.510913E-04  0.337E-02    2.95       1.0  T
   5    -39.2837954 -0.112897E-04  0.109E-02    2.95       2.0  T
   6    -39.2837957 -0.302853E-06  0.584E-03    2.95       3.7  T
   7    -39.2837960 -0.373175E-06  0.198E-03    2.95      11.0  T
   8    -39.2837961 -0.495837E-08  0.100E-03    2.95      21.8  T
   9    -39.2837961 -0.178662E-08  0.414E-04    2.95      52.7  T
  10    -39.2837961 -0.140383E-08  0.175E-04    2.95     124.9  T
     SCC iter.                  ...        0 min,  0.009 sec
     gradient                   ...        0 min,  0.002 sec
 * total energy  :   -38.8054603 Eh     change       -0.1487249E-02 Eh
   gradient norm :     0.0257353 Eh/α   predicted    -0.2237103E-02 (  50.42%)
   displ. norm   :     0.3463343 α      lambda       -0.1681962E-02
   maximum displ.:     0.2494575 α      in ANC's #2, #3, #1, ...

........................................................................
.............................. CYCLE   15 ..............................
........................................................................

 iter      E             dE          RMSdq      gap      omega  full diag
   1    -39.2863280 -0.392863E+02  0.224E-01    2.94       0.0  T
   2    -39.2864512 -0.123260E-03  0.114E-01    3.00       1.0  T
   3    -39.2864493  0.192126E-05  0.543E-02    2.99       1.0  T
   4    -39.2864563 -0.694607E-05  0.219E-02    3.00       1.0  T
   5    -39.2864622 -0.595357E-05  0.524E-03    3.00       4.2  T
   6    -39.2864623 -0.726995E-07  0.274E-03    3.00       8.0  T
   7    -39.2864624 -0.100487E-06  0.591E-04    3.00      36.9  T
   8    -39.2864624 -0.974815E-09  0.348E-04    3.00      62.8  T
     SCC iter.                  ...        0 min,  0.008 sec
     gradient                   ...        0 min,  0.002 sec
 * total energy  :   -38.8064224 Eh     change       -0.9620828E-03 Eh
   gradient norm :     0.0253659 Eh/α   predicted    -0.9418570E-03 (  -2.10%)
   displ. norm   :     0.4056744 α      lambda       -0.1757380E-02
   maximum displ.:     0.3002056 α      in ANC's #2, #1, #3, ...

........................................................................
.............................. CYCLE   16 ..............................
........................................................................

 iter      E             dE          RMSdq      gap      omega  full diag
   1    -39.2912320 -0.392912E+02  0.162E-01    3.05       0.0  T
   2    -39.2912640 -0.319457E-04  0.939E-02    3.05       1.0  T
   3    -39.2912577  0.621773E-05  0.364E-02    3.05       1.0  T
   4    -39.2912687 -0.109565E-04  0.995E-03    3.05       2.2  T
   5    -39.2912694 -0.697185E-06  0.378E-03    3.05       5.8  T
   6    -39.2912694 -0.140098E-07  0.156E-03    3.05      14.0  T
   7    -39.2912694 -0.105543E-07  0.919E-04    3.05      23.7  T
   8    -39.2912694 -0.301925E-08  0.424E-04    3.05      51.5  T
     SCC iter.                  ...        0 min,  0.006 sec
     gradient                   ...        0 min,  0.002 sec
 * total energy  :   -38.8077215 Eh     change       -0.1299120E-02 Eh
   gradient norm :     0.0145837 Eh/α   predicted    -0.1023301E-02 ( -21.23%)
   displ. norm   :     0.6817765 α      lambda       -0.2179302E-02
   maximum displ.:     0.5222660 α      in ANC's #2, #3, #1, ...

........................................................................
.............................. CYCLE   17 ..............................
........................................................................

 iter      E             dE          RMSdq      gap      omega  full diag
   1    -39.2949447 -0.392949E+02  0.286E-01    3.08       0.0  T
   2    -39.2949816 -0.369307E-04  0.160E-01    3.09       1.0  T
   3    -39.2949800  0.166520E-05  0.334E-02    3.09       1.0  T
   4    -39.2949843 -0.430221E-05  0.126E-02    3.09       1.7  T
   5    -39.2949856 -0.133576E-05  0.546E-03    3.09       4.0  T
   6    -39.2949857 -0.132149E-06  0.218E-03    3.09      10.0  T
   7    -39.2949858 -0.328071E-07  0.104E-03    3.09      21.0  T
   8    -39.2949858 -0.848502E-09  0.500E-04    3.09      43.7  T
   9    -39.2949858 -0.141888E-08  0.157E-04    3.09     138.6  T
     SCC iter.                  ...        0 min,  0.008 sec
     gradient                   ...        0 min,  0.002 sec
 * total energy  :   -38.8093758 Eh     change       -0.1654206E-02 Eh
   gradient norm :     0.0159737 Eh/α   predicted    -0.1596143E-02 (  -3.51%)
   displ. norm   :     0.7899243 α      lambda       -0.1977117E-02
   maximum displ.:     0.6263857 α      in ANC's #2, #3, #1, ...

........................................................................
.............................. CYCLE   18 ..............................
........................................................................

 iter      E             dE          RMSdq      gap      omega  full diag
   1    -39.2901287 -0.392901E+02  0.309E-01    3.04       0.0  T
   2    -39.2901528 -0.240283E-04  0.177E-01    3.05       1.0  T
   3    -39.2901328  0.199693E-04  0.448E-02    3.06       1.0  T
   4    -39.2901602 -0.274146E-04  0.139E-02    3.06       1.6  T
   5    -39.2901609 -0.649394E-06  0.512E-03    3.06       4.3  T
   6    -39.2901611 -0.231607E-06  0.209E-03    3.06      10.5  T
   7    -39.2901611 -0.431475E-07  0.904E-04    3.06      24.1  T
   8    -39.2901611 -0.913872E-09  0.358E-04    3.06      61.0  T
     SCC iter.                  ...        0 min,  0.006 sec
     gradient                   ...        0 min,  0.002 sec
 * total energy  :   -38.8106283 Eh     change       -0.1252501E-02 Eh
   gradient norm :     0.0202866 Eh/α   predicted    -0.1605401E-02 (  28.18%)
   displ. norm   :     0.4780754 α      lambda       -0.1792217E-02
   maximum displ.:     0.3094420 α      in ANC's #2, #10, #3, ...

........................................................................
.............................. CYCLE   19 ..............................
........................................................................

 iter      E             dE          RMSdq      gap      omega  full diag
   1    -39.3035866 -0.393036E+02  0.242E-01    2.95       0.0  T
   2    -39.3036235 -0.368992E-04  0.141E-01    2.95       1.0  T
   3    -39.3036059  0.176162E-04  0.531E-02    2.95       1.0  T
   4    -39.3036331 -0.272651E-04  0.163E-02    2.95       1.3  T
   5    -39.3036343 -0.115536E-05  0.745E-03    2.95       2.9  T
   6    -39.3036344 -0.107511E-06  0.350E-03    2.95       6.2  T
   7    -39.3036344 -0.565056E-07  0.163E-03    2.95      13.4  T
   8    -39.3036344 -0.209485E-08  0.673E-04    2.95      32.4  T
   9    -39.3036345 -0.359496E-08  0.281E-04    2.95      77.7  T
     SCC iter.                  ...        0 min,  0.007 sec
     gradient                   ...        0 min,  0.002 sec
 * total energy  :   -38.8109790 Eh     change       -0.3507770E-03 Eh
   gradient norm :     0.0307533 Eh/α   predicted    -0.1100921E-02 ( 213.85%)
   displ. norm   :     0.4225428 α      lambda       -0.2260936E-02
   maximum displ.:     0.2586884 α      in ANC's #2, #3, #18, ...

........................................................................
.............................. CYCLE   20 ..............................
........................................................................

 iter      E             dE          RMSdq      gap      omega  full diag
   1    -39.2923371 -0.392923E+02  0.222E-01    3.00       0.0  T
   2    -39.2924350 -0.978624E-04  0.119E-01    3.01       1.0  T
   3    -39.2924330  0.202142E-05  0.531E-02    3.01       1.0  T
   4    -39.2924371 -0.409783E-05  0.213E-02    3.01       1.0  T
   5    -39.2924427 -0.565839E-05  0.636E-03    3.01       3.4  T
   6    -39.2924428 -0.698709E-07  0.326E-03    3.01       6.7  T
   7    -39.2924429 -0.814805E-07  0.147E-03    3.01      14.9  T
   8    -39.2924429 -0.178450E-08  0.748E-04    3.01      29.2  T
   9    -39.2924429 -0.155516E-08  0.261E-04    3.01      83.5  T
     SCC iter.                  ...        0 min,  0.008 sec
     gradient                   ...        0 min,  0.002 sec
 * total energy  :   -38.8119691 Eh     change       -0.9901063E-03 Eh
   gradient norm :     0.0174660 Eh/α   predicted    -0.1332309E-02 (  34.56%)
   displ. norm   :     0.2801116 α      lambda       -0.1129545E-02
   maximum displ.:     0.2213298 α      in ANC's #2, #1, #20, ...
 * RMSD in coord.:     1.5441604 α      energy gain  -0.3277026E-01 Eh

generating ANC from model Hessian ...
Using Lindh-Hessian (1995)
 Shifting diagonal of input Hessian by    9.0384381293421700E-003
 Lowest  eigenvalues of input Hessian
    0.000000    0.000000    0.000000    0.000000    0.000000    0.000000
    0.010000    0.010935    0.011419    0.012498    0.016080    0.016896
    0.020687    0.022641    0.029050    0.029992    0.032134    0.046564
 Highest eigenvalues
    1.820350    1.860014    1.977454    2.023773    2.180989    2.384137


........................................................................
.............................. CYCLE   21 ..............................
........................................................................

 iter      E             dE          RMSdq      gap      omega  full diag
   1    -39.2939032 -0.392939E+02  0.125E-01    3.04       0.0  T
   2    -39.2939187 -0.155167E-04  0.756E-02    3.03       1.0  T
   3    -39.2939146  0.407071E-05  0.258E-02    3.04       1.0  T
   4    -39.2939207 -0.609709E-05  0.739E-03    3.03       3.0  T
   5    -39.2939213 -0.585836E-06  0.358E-03    3.03       6.1  T
   6    -39.2939214 -0.691897E-07  0.171E-03    3.04      12.7  T
   7    -39.2939214 -0.150150E-07  0.726E-04    3.04      30.0  T
   8    -39.2939214 -0.499249E-09  0.412E-04    3.04      52.9  T
     SCC iter.                  ...        0 min,  0.008 sec
     gradient                   ...        0 min,  0.002 sec
 * total energy  :   -38.8125033 Eh     change       -0.5341835E-03 Eh
   gradient norm :     0.0163580 Eh/α   predicted     0.0000000E+00 (-100.00%)
   displ. norm   :     0.1800057 α      lambda       -0.9048810E-03
   maximum displ.:     0.1267211 α      in ANC's #1, #3, #7, ...

........................................................................
.............................. CYCLE   22 ..............................
........................................................................

 iter      E             dE          RMSdq      gap      omega  full diag
   1    -39.2976978 -0.392977E+02  0.932E-02    3.03       0.0  T
   2    -39.2977064 -0.860066E-05  0.528E-02    3.03       1.0  T
   3    -39.2977044  0.195017E-05  0.171E-02    3.03       1.3  T
   4    -39.2977069 -0.245109E-05  0.753E-03    3.03       2.9  T
   5    -39.2977075 -0.650547E-06  0.305E-03    3.03       7.2  T
   6    -39.2977076 -0.294598E-07  0.100E-03    3.03      21.8  T
   7    -39.2977076 -0.145154E-07  0.339E-04    3.03      64.4  T
   8    -39.2977076 -0.114902E-09  0.172E-04    3.03     126.6  T
     SCC iter.                  ...        0 min,  0.007 sec
     gradient                   ...        0 min,  0.002 sec
 * total energy  :   -38.8131117 Eh     change       -0.6084224E-03 Eh
   gradient norm :     0.0070621 Eh/α   predicted    -0.4671180E-03 ( -23.22%)
   displ. norm   :     0.2500001 α      lambda       -0.5957324E-03
   maximum displ.:     0.1792134 α      in ANC's #1, #3, #4, ...

........................................................................
.............................. CYCLE   23 ..............................
........................................................................

 iter      E             dE          RMSdq      gap      omega  full diag
   1    -39.3001699 -0.393002E+02  0.125E-01    3.02       0.0  T
   2    -39.3001824 -0.124445E-04  0.740E-02    3.03       1.0  T
   3    -39.3001785  0.386409E-05  0.217E-02    3.03       1.0  T
   4    -39.3001822 -0.370230E-05  0.817E-03    3.03       2.7  T
   5    -39.3001837 -0.149848E-05  0.185E-03    3.03      11.8  T
   6    -39.3001837 -0.465359E-08  0.952E-04    3.03      22.9  T
   7    -39.3001837 -0.724988E-08  0.364E-04    3.03      60.0  T
     SCC iter.                  ...        0 min,  0.006 sec
     gradient                   ...        0 min,  0.002 sec
 * total energy  :   -38.8135359 Eh     change       -0.4241871E-03 Eh
   gradient norm :     0.0049694 Eh/α   predicted    -0.3164893E-03 ( -25.39%)
   displ. norm   :     0.2916265 α      lambda       -0.4052951E-03
   maximum displ.:     0.2173064 α      in ANC's #1, #3, #4, ...

........................................................................
.............................. CYCLE   24 ..............................
........................................................................

 iter      E             dE          RMSdq      gap      omega  full diag
   1    -39.2993914 -0.392994E+02  0.137E-01    3.03       0.0  T
   2    -39.2994032 -0.117516E-04  0.809E-02    3.03       1.0  T
   3    -39.2994012  0.195716E-05  0.190E-02    3.03       1.2  T
   4    -39.2994034 -0.215061E-05  0.642E-03    3.03       3.4  T
   5    -39.2994042 -0.815159E-06  0.231E-03    3.03       9.5  T
   6    -39.2994042 -0.143202E-07  0.104E-03    3.03      21.0  T
   7    -39.2994042 -0.111597E-07  0.414E-04    3.03      52.8  T
   8    -39.2994042 -0.291351E-09  0.189E-04    3.03     115.5  T
     SCC iter.                  ...        0 min,  0.008 sec
     gradient                   ...        0 min,  0.002 sec
 * total energy  :   -38.8138756 Eh     change       -0.3396817E-03 Eh
   gradient norm :     0.0071279 Eh/α   predicted    -0.2198822E-03 ( -35.27%)
   displ. norm   :     0.2877177 α      lambda       -0.3598251E-03
   maximum displ.:     0.2168836 α      in ANC's #1, #3, #6, ...

........................................................................
.............................. CYCLE   25 ..............................
........................................................................

 iter      E             dE          RMSdq      gap      omega  full diag
   1    -39.2983582 -0.392984E+02  0.138E-01    3.03       0.0  T
   2    -39.2983657 -0.741350E-05  0.818E-02    3.04       1.0  T
   3    -39.2983648  0.818560E-06  0.136E-02    3.03       1.6  T
   4    -39.2983661 -0.123074E-05  0.467E-03    3.03       4.7  T
   5    -39.2983664 -0.312959E-06  0.210E-03    3.03      10.4  T
   6    -39.2983664 -0.635939E-08  0.781E-04    3.03      27.9  T
   7    -39.2983664 -0.444079E-08  0.390E-04    3.03      55.9  T
     SCC iter.                  ...        0 min,  0.007 sec
     gradient                   ...        0 min,  0.003 sec
 * total energy  :   -38.8141757 Eh     change       -0.3000688E-03 Eh
   gradient norm :     0.0075575 Eh/α   predicted    -0.1948110E-03 ( -35.08%)
   displ. norm   :     0.2927430 α      lambda       -0.3341722E-03
   maximum displ.:     0.2284250 α      in ANC's #1, #3, #6, ...

........................................................................
.............................. CYCLE   26 ..............................
........................................................................

 iter      E             dE          RMSdq      gap      omega  full diag
   1    -39.2982102 -0.392982E+02  0.139E-01    3.04       0.0  T
   2    -39.2982131 -0.293293E-05  0.823E-02    3.04       1.0  T
   3    -39.2982127  0.423353E-06  0.804E-03    3.04       2.7  T
   4    -39.2982135 -0.784671E-06  0.402E-03    3.04       5.4  T
   5    -39.2982137 -0.197422E-06  0.190E-03    3.04      11.5  T
   6    -39.2982137 -0.345443E-08  0.873E-04    3.04      25.0  T
   7    -39.2982137 -0.629503E-08  0.359E-04    3.04      60.7  T
     SCC iter.                  ...        0 min,  0.008 sec
     gradient                   ...        0 min,  0.002 sec
 * total energy  :   -38.8144456 Eh     change       -0.2699632E-03 Eh
   gradient norm :     0.0066215 Eh/α   predicted    -0.1814113E-03 ( -32.80%)
   displ. norm   :     0.2995246 α      lambda       -0.2786330E-03
   maximum displ.:     0.2424386 α      in ANC's #1, #3, #2, ...

........................................................................
.............................. CYCLE   27 ..............................
........................................................................

 iter      E             dE          RMSdq      gap      omega  full diag
   1    -39.2986521 -0.392987E+02  0.139E-01    3.04       0.0  T
   2    -39.2986533 -0.122651E-05  0.817E-02    3.04       1.0  T
   3    -39.2986523  0.989500E-06  0.835E-03    3.03       2.6  T
   4    -39.2986538 -0.150762E-05  0.306E-03    3.04       7.1  T
   5    -39.2986539 -0.427052E-07  0.156E-03    3.04      14.0  T
   6    -39.2986539 -0.804893E-08  0.640E-04    3.04      34.1  T
   7    -39.2986539 -0.296262E-08  0.291E-04    3.04      74.9  T
     SCC iter.                  ...        0 min,  0.008 sec
     gradient                   ...        0 min,  0.002 sec
 * total energy  :   -38.8146617 Eh     change       -0.2160235E-03 Eh
   gradient norm :     0.0052748 Eh/α   predicted    -0.1518156E-03 ( -29.72%)
   displ. norm   :     0.2923775 α      lambda       -0.2044784E-03
   maximum displ.:     0.2434192 α      in ANC's #1, #3, #2, ...

........................................................................
.............................. CYCLE   28 ..............................
........................................................................

 iter      E             dE          RMSdq      gap      omega  full diag
   1    -39.2992549 -0.392993E+02  0.132E-01    3.04       0.0  T
   2    -39.2992562 -0.128281E-05  0.774E-02    3.03       1.0  T
   3    -39.2992551  0.114837E-05  0.882E-03    3.03       2.5  T
   4    -39.2992567 -0.158846E-05  0.299E-03    3.03       7.3  T
   5    -39.2992567 -0.734295E-07  0.143E-03    3.03      15.3  T
   6    -39.2992567 -0.241779E-08  0.669E-04    3.03      32.6  T
   7    -39.2992567 -0.419323E-08  0.260E-04    3.03      83.9  T
     SCC iter.                  ...        0 min,  0.009 sec
     gradient                   ...        0 min,  0.003 sec
 * total energy  :   -38.8148184 Eh     change       -0.1567494E-03 Eh
   gradient norm :     0.0043519 Eh/α   predicted    -0.1109795E-03 ( -29.20%)
   displ. norm   :     0.2888120 α      lambda       -0.1548283E-03
   maximum displ.:     0.2466361 α      in ANC's #1, #3, #2, ...

........................................................................
.............................. CYCLE   29 ..............................
........................................................................

 iter      E             dE          RMSdq      gap      omega  full diag
   1    -39.2997715 -0.392998E+02  0.128E-01    3.02       0.0  T
   2    -39.2997729 -0.148480E-05  0.744E-02    3.02       1.0  T
   3    -39.2997721  0.880933E-06  0.858E-03    3.02       2.5  T
   4    -39.2997733 -0.123398E-05  0.322E-03    3.02       6.8  T
   5    -39.2997734 -0.104756E-06  0.131E-03    3.02      16.7  T
   6    -39.2997734 -0.197709E-08  0.584E-04    3.02      37.3  T
   7    -39.2997734 -0.310713E-08  0.266E-04    3.02      82.1  T
     SCC iter.                  ...        0 min,  0.010 sec
     gradient                   ...        0 min,  0.005 sec
 * total energy  :   -38.8149294 Eh     change       -0.1109833E-03 Eh
   gradient norm :     0.0036397 Eh/α   predicted    -0.8387231E-04 ( -24.43%)
   displ. norm   :     0.2167182 α      lambda       -0.9461588E-04
   maximum displ.:     0.1907450 α      in ANC's #1, #3, #5, ...

........................................................................
.............................. CYCLE   30 ..............................
........................................................................

 iter      E             dE          RMSdq      gap      omega  full diag
   1    -39.3011099 -0.393011E+02  0.948E-02    3.01       0.0  T
   2    -39.3011128 -0.291482E-05  0.545E-02    3.01       1.0  T
   3    -39.3011119  0.880755E-06  0.112E-02    3.01       1.9  T
   4    -39.3011130 -0.110789E-05  0.369E-03    3.01       5.9  T
   5    -39.3011132 -0.181816E-06  0.131E-03    3.01      16.7  T
   6    -39.3011132 -0.134801E-08  0.630E-04    3.01      34.7  T
   7    -39.3011132 -0.434912E-08  0.277E-04    3.01      78.8  T
     SCC iter.                  ...        0 min,  0.009 sec
     gradient                   ...        0 min,  0.003 sec
 * total energy  :   -38.8149922 Eh     change       -0.6277555E-04 Eh
   gradient norm :     0.0047200 Eh/α   predicted    -0.4953038E-04 ( -21.10%)
   displ. norm   :     0.2169222 α      lambda       -0.6417579E-04
   maximum displ.:     0.1828543 α      in ANC's #1, #3, #5, ...

........................................................................
.............................. CYCLE   31 ..............................
........................................................................

 iter      E             dE          RMSdq      gap      omega  full diag
   1    -39.2995182 -0.392995E+02  0.912E-02    2.99       0.0  T
   2    -39.2995208 -0.261130E-05  0.535E-02    2.99       1.0  T
   3    -39.2995197  0.118094E-05  0.112E-02    2.99       1.9  T
   4    -39.2995212 -0.150469E-05  0.339E-03    2.99       6.4  T
   5    -39.2995213 -0.143055E-06  0.136E-03    2.99      16.0  T
   6    -39.2995213 -0.409580E-08  0.645E-04    2.99      33.8  T
   7    -39.2995213 -0.366357E-08  0.261E-04    2.99      83.5  T
     SCC iter.                  ...        0 min,  0.009 sec
     gradient                   ...        0 min,  0.003 sec
 * total energy  :   -38.8150087 Eh     change       -0.1655502E-04 Eh
   gradient norm :     0.0034754 Eh/α   predicted    -0.3359828E-04 ( 102.95%)
   displ. norm   :     0.0632377 α      lambda       -0.6560481E-04
   maximum displ.:     0.0410869 α      in ANC's #3, #2, #6, ...

........................................................................
.............................. CYCLE   32 ..............................
........................................................................

 iter      E             dE          RMSdq      gap      omega  full diag
   1    -39.3020867 -0.393021E+02  0.456E-02    2.98       0.0  T
   2    -39.3020889 -0.224960E-05  0.267E-02    2.98       1.0  T
   3    -39.3020885  0.476456E-06  0.107E-02    2.98       2.0  T
   4    -39.3020893 -0.888572E-06  0.288E-03    2.98       7.6  T
   5    -39.3020894 -0.575486E-07  0.138E-03    2.98      15.8  T
   6    -39.3020894 -0.988159E-09  0.575E-04    2.98      37.9  T
   7    -39.3020894 -0.277711E-08  0.297E-04    2.98      73.4  T
     SCC iter.                  ...        0 min,  0.009 sec
     gradient                   ...        0 min,  0.003 sec
 * total energy  :   -38.8150354 Eh     change       -0.2664726E-04 Eh
   gradient norm :     0.0026968 Eh/α   predicted    -0.3293408E-04 (  23.59%)
   displ. norm   :     0.0256569 α      lambda       -0.2337772E-04
   maximum displ.:     0.0121619 α      in ANC's #2, #4, #1, ...

........................................................................
.............................. CYCLE   33 ..............................
........................................................................

 iter      E             dE          RMSdq      gap      omega  full diag
   1    -39.3015890 -0.393016E+02  0.186E-02    2.98       0.0  T
   2    -39.3015892 -0.109597E-06  0.109E-02    2.98       2.0  T
   3    -39.3015891  0.367288E-07  0.234E-03    2.99       9.3  T
   4    -39.3015892 -0.602607E-07  0.949E-04    2.99      23.0  T
   5    -39.3015892 -0.379540E-08  0.455E-04    2.99      48.0  T
     SCC iter.                  ...        0 min,  0.006 sec
     gradient                   ...        0 min,  0.003 sec
 * total energy  :   -38.8150472 Eh     change       -0.1182447E-04 Eh
   gradient norm :     0.0030336 Eh/α   predicted    -0.1170290E-04 (  -1.03%)
   displ. norm   :     0.0307603 α      lambda       -0.1240547E-04
   maximum displ.:     0.0161535 α      in ANC's #2, #1, #6, ...

........................................................................
.............................. CYCLE   34 ..............................
........................................................................

 iter      E             dE          RMSdq      gap      omega  full diag
   1    -39.3009559 -0.393010E+02  0.208E-02    2.98       0.0  T
   2    -39.3009565 -0.669352E-06  0.111E-02    2.98       2.0  T
   3    -39.3009565  0.189027E-07  0.457E-03    2.98       4.8  T
   4    -39.3009565 -0.131767E-07  0.157E-03    2.98      13.9  T
   5    -39.3009566 -0.417248E-07  0.409E-04    2.98      53.4  T
   6    -39.3009566 -0.290058E-09  0.250E-04    2.98      87.2  T
     SCC iter.                  ...        0 min,  0.008 sec
     gradient                   ...        0 min,  0.003 sec
 * total energy  :   -38.8150565 Eh     change       -0.9288739E-05 Eh
   gradient norm :     0.0011233 Eh/α   predicted    -0.6211596E-05 ( -33.13%)
   displ. norm   :     0.0852632 α      lambda       -0.1345981E-04
   maximum displ.:     0.0466295 α      in ANC's #2, #5, #6, ...

........................................................................
.............................. CYCLE   35 ..............................
........................................................................

 iter      E             dE          RMSdq      gap      omega  full diag
   1    -39.3000830 -0.393001E+02  0.539E-02    2.97       0.0  T
   2    -39.3000839 -0.859510E-06  0.304E-02    2.98       1.0  T
   3    -39.3000838  0.508318E-07  0.534E-03    2.98       4.1  T
   4    -39.3000839 -0.699256E-07  0.264E-03    2.98       8.3  T
   5    -39.3000840 -0.860082E-07  0.968E-04    2.98      22.5  T
   6    -39.3000840 -0.262969E-08  0.331E-04    2.98      65.8  T
     SCC iter.                  ...        0 min,  0.008 sec
     gradient                   ...        0 min,  0.003 sec
 * total energy  :   -38.8150655 Eh     change       -0.9017037E-05 Eh
   gradient norm :     0.0021960 Eh/α   predicted    -0.6757431E-05 ( -25.06%)
   displ. norm   :     0.0162704 α      lambda       -0.5328683E-05
   maximum displ.:     0.0103450 α      in ANC's #5, #2, #7, ...

........................................................................
.............................. CYCLE   36 ..............................
........................................................................

 iter      E             dE          RMSdq      gap      omega  full diag
   1    -39.3002924 -0.393003E+02  0.847E-03    2.98       0.0  T
   2    -39.3002924 -0.484438E-07  0.481E-03    2.98       4.5  T
   3    -39.3002924  0.873663E-08  0.132E-03    2.98      16.6  T
   4    -39.3002924 -0.151067E-07  0.485E-04    2.98      45.0  T
   5    -39.3002924 -0.104024E-08  0.217E-04    2.98     100.4  T
     SCC iter.                  ...        0 min,  0.007 sec
     gradient                   ...        0 min,  0.003 sec
 * total energy  :   -38.8150698 Eh     change       -0.4332444E-05 Eh
   gradient norm :     0.0016891 Eh/α   predicted    -0.2666064E-05 ( -38.46%)
   displ. norm   :     0.0849909 α      lambda       -0.1375621E-04
   maximum displ.:     0.0621111 α      in ANC's #5, #7, #2, ...

........................................................................
.............................. CYCLE   37 ..............................
........................................................................

 iter      E             dE          RMSdq      gap      omega  full diag
   1    -39.3009824 -0.393010E+02  0.361E-02    2.98       0.0  T
   2    -39.3009843 -0.194265E-05  0.204E-02    2.98       1.1  T
   3    -39.3009842  0.130033E-06  0.745E-03    2.98       2.9  T
   4    -39.3009845 -0.255083E-06  0.289E-03    2.98       7.6  T
   5    -39.3009845 -0.860548E-07  0.118E-03    2.98      18.5  T
   6    -39.3009846 -0.453964E-08  0.462E-04    2.98      47.2  T
   7    -39.3009846 -0.229872E-08  0.172E-04    2.98     126.8  T
     SCC iter.                  ...        0 min,  0.009 sec
     gradient                   ...        0 min,  0.003 sec
 * total energy  :   -38.8150786 Eh     change       -0.8795736E-05 Eh
   gradient norm :     0.0018711 Eh/α   predicted    -0.6909839E-05 ( -21.44%)
   displ. norm   :     0.0190588 α      lambda       -0.3936025E-05
   maximum displ.:     0.0131206 α      in ANC's #5, #13, #2, ...

........................................................................
.............................. CYCLE   38 ..............................
........................................................................

 iter      E             dE          RMSdq      gap      omega  full diag
   1    -39.3007324 -0.393007E+02  0.762E-03    2.98       0.0  T
   2    -39.3007325 -0.942625E-07  0.409E-03    2.98       5.3  T
   3    -39.3007325  0.707870E-08  0.188E-03    2.98      11.6  T
   4    -39.3007325 -0.907720E-08  0.723E-04    2.98      30.2  T
   5    -39.3007326 -0.858041E-08  0.192E-04    2.98     113.9  T
     SCC iter.                  ...        0 min,  0.007 sec
     gradient                   ...        0 min,  0.003 sec
 * total energy  :   -38.8150837 Eh     change       -0.5078983E-05 Eh
   gradient norm :     0.0012185 Eh/α   predicted    -0.1969328E-05 ( -61.23%)
   displ. norm   :     0.1148792 α      lambda       -0.1694096E-04
   maximum displ.:     0.0815708 α      in ANC's #5, #13, #4, ...

........................................................................
.............................. CYCLE   39 ..............................
........................................................................

 iter      E             dE          RMSdq      gap      omega  full diag
   1    -39.2999428 -0.392999E+02  0.420E-02    2.98       0.0  T
   2    -39.2999437 -0.933464E-06  0.237E-02    2.98       1.0  T
   3    -39.2999436  0.190158E-06  0.625E-03    2.98       3.5  T
   4    -39.2999438 -0.221561E-06  0.261E-03    2.98       8.4  T
   5    -39.2999439 -0.102262E-06  0.879E-04    2.98      24.8  T
   6    -39.2999439 -0.113851E-08  0.305E-04    2.98      71.5  T
     SCC iter.                  ...        0 min,  0.008 sec
     gradient                   ...        0 min,  0.003 sec
 * total energy  :   -38.8150986 Eh     change       -0.1489883E-04 Eh
   gradient norm :     0.0023015 Eh/α   predicted    -0.8520812E-05 ( -42.81%)
   displ. norm   :     0.0587779 α      lambda       -0.1134525E-04
   maximum displ.:     0.0369765 α      in ANC's #5, #6, #7, ...

........................................................................
.............................. CYCLE   40 ..............................
........................................................................

 iter      E             dE          RMSdq      gap      omega  full diag
   1    -39.3000617 -0.393001E+02  0.236E-02    2.99       0.0  T
   2    -39.3000618 -0.119022E-06  0.138E-02    2.99       1.6  T
   3    -39.3000617  0.113677E-06  0.318E-03    2.99       6.9  T
   4    -39.3000618 -0.156377E-06  0.945E-04    2.99      23.1  T
   5    -39.3000618 -0.336612E-08  0.362E-04    2.99      60.3  T
     SCC iter.                  ...        0 min,  0.006 sec
     gradient                   ...        0 min,  0.003 sec
 * total energy  :   -38.8151074 Eh     change       -0.8786289E-05 Eh
   gradient norm :     0.0024428 Eh/α   predicted    -0.5693472E-05 ( -35.20%)
   displ. norm   :     0.1474126 α      lambda       -0.1976959E-04
   maximum displ.:     0.1025507 α      in ANC's #5, #6, #7, ...

........................................................................
.............................. CYCLE   41 ..............................
........................................................................

 iter      E             dE          RMSdq      gap      omega  full diag
   1    -39.2997899 -0.392998E+02  0.536E-02    2.99       0.0  T
   2    -39.2997904 -0.572705E-06  0.311E-02    2.99       1.0  T
   3    -39.2997901  0.310357E-06  0.610E-03    2.99       3.6  T
   4    -39.2997906 -0.455376E-06  0.251E-03    2.99       8.7  T
   5    -39.2997906 -0.311201E-07  0.834E-04    2.99      26.2  T
   6    -39.2997906 -0.179230E-08  0.341E-04    2.99      63.9  T
     SCC iter.                  ...        0 min,  0.008 sec
     gradient                   ...        0 min,  0.003 sec
 * total energy  :   -38.8151199 Eh     change       -0.1245445E-04 Eh
   gradient norm :     0.0030969 Eh/α   predicted    -0.1010629E-04 ( -18.85%)
   displ. norm   :     0.0735028 α      lambda       -0.1815530E-04
   maximum displ.:     0.0446115 α      in ANC's #5, #6, #8, ...

........................................................................
.............................. CYCLE   42 ..............................
........................................................................

 iter      E             dE          RMSdq      gap      omega  full diag
   1    -39.3005527 -0.393006E+02  0.313E-02    3.00       0.0  T
   2    -39.3005532 -0.503951E-06  0.183E-02    3.00       1.2  T
   3    -39.3005531  0.136075E-06  0.447E-03    3.00       4.9  T
   4    -39.3005532 -0.168156E-06  0.169E-03    3.00      12.9  T
   5    -39.3005533 -0.386254E-07  0.616E-04    3.00      35.4  T
   6    -39.3005533 -0.441709E-09  0.228E-04    3.00      95.8  T
     SCC iter.                  ...        0 min,  0.008 sec
     gradient                   ...        0 min,  0.003 sec
 * total energy  :   -38.8151318 Eh     change       -0.1190013E-04 Eh
   gradient norm :     0.0018480 Eh/α   predicted    -0.9129062E-05 ( -23.29%)
   displ. norm   :     0.1694155 α      lambda       -0.1184272E-04
   maximum displ.:     0.1239903 α      in ANC's #5, #7, #6, ...
 * RMSD in coord.:     0.5803899 α      energy gain  -0.3162618E-02 Eh

generating ANC from model Hessian ...
Using Lindh-Hessian (1995)
 Shifting diagonal of input Hessian by    8.9415152570456544E-003
 Lowest  eigenvalues of input Hessian
    0.000000    0.000000    0.000000    0.000000    0.000000    0.000000
    0.010000    0.010647    0.011506    0.012788    0.016124    0.017163
    0.021217    0.023123    0.028223    0.029181    0.031954    0.047125
 Highest eigenvalues
    1.824282    1.867874    1.988193    2.032371    2.175811    2.377500


........................................................................
.............................. CYCLE   43 ..............................
........................................................................

 iter      E             dE          RMSdq      gap      omega  full diag
   1    -39.3004504 -0.393005E+02  0.596E-02    3.01       0.0  T
   2    -39.3004523 -0.187464E-05  0.344E-02    3.00       1.0  T
   3    -39.3004518  0.471033E-06  0.843E-03    3.00       2.6  T
   4    -39.3004524 -0.584788E-06  0.362E-03    3.00       6.0  T
   5    -39.3004525 -0.138809E-06  0.144E-03    3.00      15.2  T
   6    -39.3004526 -0.617930E-08  0.476E-04    3.00      45.8  T
   7    -39.3004526 -0.270960E-08  0.203E-04    3.00     107.4  T
     SCC iter.                  ...        0 min,  0.008 sec
     gradient                   ...        0 min,  0.002 sec
 * total energy  :   -38.8151360 Eh     change       -0.4279673E-05 Eh
   gradient norm :     0.0025171 Eh/α   predicted     0.0000000E+00 (-100.00%)
   displ. norm   :     0.0193183 α      lambda       -0.1573721E-04
   maximum displ.:     0.0144354 α      in ANC's #3, #1, #2, ...

........................................................................
.............................. CYCLE   44 ..............................
........................................................................

 iter      E             dE          RMSdq      gap      omega  full diag
   1    -39.3009036 -0.393009E+02  0.119E-02    3.00       0.0  T
   2    -39.3009037 -0.165050E-06  0.666E-03    3.00       3.3  T
   3    -39.3009037  0.151682E-07  0.204E-03    3.00      10.7  T
   4    -39.3009038 -0.252113E-07  0.785E-04    3.00      27.8  T
   5    -39.3009038 -0.727778E-08  0.319E-04    3.00      68.5  T
     SCC iter.                  ...        0 min,  0.005 sec
     gradient                   ...        0 min,  0.003 sec
 * total energy  :   -38.8151468 Eh     change       -0.1079500E-04 Eh
   gradient norm :     0.0008041 Eh/α   predicted    -0.7882442E-05 ( -26.98%)
   displ. norm   :     0.0471254 α      lambda       -0.8394824E-05
   maximum displ.:     0.0366214 α      in ANC's #3, #1, #2, ...

........................................................................
.............................. CYCLE   45 ..............................
........................................................................

 iter      E             dE          RMSdq      gap      omega  full diag
   1    -39.3012614 -0.393013E+02  0.245E-02    3.00       0.0  T
   2    -39.3012617 -0.297144E-06  0.139E-02    3.00       1.6  T
   3    -39.3012616  0.428343E-07  0.302E-03    3.00       7.2  T
   4    -39.3012617 -0.691933E-07  0.143E-03    3.00      15.3  T
   5    -39.3012617 -0.172979E-07  0.567E-04    3.00      38.5  T
   6    -39.3012617 -0.957833E-09  0.199E-04    3.00     109.9  T
     SCC iter.                  ...        0 min,  0.007 sec
     gradient                   ...        0 min,  0.003 sec
 * total energy  :   -38.8151542 Eh     change       -0.7344395E-05 Eh
   gradient norm :     0.0012258 Eh/α   predicted    -0.4209227E-05 ( -42.69%)
   displ. norm   :     0.0397103 α      lambda       -0.5140141E-05
   maximum displ.:     0.0284850 α      in ANC's #3, #1, #2, ...

........................................................................
.............................. CYCLE   46 ..............................
........................................................................

 iter      E             dE          RMSdq      gap      omega  full diag
   1    -39.3011517 -0.393012E+02  0.196E-02    3.00       0.0  T
   2    -39.3011518 -0.111524E-06  0.114E-02    3.00       1.9  T
   3    -39.3011518  0.671895E-07  0.268E-03    3.00       8.2  T
   4    -39.3011519 -0.960044E-07  0.982E-04    3.00      22.2  T
   5    -39.3011519 -0.397701E-08  0.414E-04    3.00      52.7  T
     SCC iter.                  ...        0 min,  0.007 sec
     gradient                   ...        0 min,  0.003 sec
 * total energy  :   -38.8151605 Eh     change       -0.6370319E-05 Eh
   gradient norm :     0.0010236 Eh/α   predicted    -0.2609059E-05 ( -59.04%)
   displ. norm   :     0.0758450 α      lambda       -0.8588314E-05
   maximum displ.:     0.0515975 α      in ANC's #3, #1, #2, ...

........................................................................
.............................. CYCLE   47 ..............................
........................................................................

 iter      E             dE          RMSdq      gap      omega  full diag
   1    -39.3007968 -0.393008E+02  0.381E-02    2.99       0.0  T
   2    -39.3007972 -0.331375E-06  0.219E-02    2.99       1.0  T
   3    -39.3007970  0.161192E-06  0.455E-03    2.99       4.8  T
   4    -39.3007973 -0.250894E-06  0.183E-03    2.99      11.9  T
   5    -39.3007973 -0.116809E-07  0.630E-04    2.99      34.6  T
   6    -39.3007973 -0.160289E-08  0.251E-04    2.99      86.8  T
     SCC iter.                  ...        0 min,  0.008 sec
     gradient                   ...        0 min,  0.003 sec
 * total energy  :   -38.8151688 Eh     change       -0.8291573E-05 Eh
   gradient norm :     0.0007087 Eh/α   predicted    -0.4306582E-05 ( -48.06%)
   displ. norm   :     0.0613233 α      lambda       -0.3939387E-05
   maximum displ.:     0.0401788 α      in ANC's #3, #1, #2, ...

........................................................................
.............................. CYCLE   48 ..............................
........................................................................

 iter      E             dE          RMSdq      gap      omega  full diag
   1    -39.3007588 -0.393008E+02  0.292E-02    2.99       0.0  T
   2    -39.3007589 -0.154270E-06  0.168E-02    2.99       1.3  T
   3    -39.3007588  0.127742E-06  0.363E-03    2.99       6.0  T
   4    -39.3007590 -0.185455E-06  0.127E-03    2.99      17.2  T
   5    -39.3007590 -0.375822E-08  0.456E-04    2.99      47.8  T
   6    -39.3007590 -0.159196E-08  0.170E-04    2.99     128.2  T
     SCC iter.                  ...        0 min,  0.008 sec
     gradient                   ...        0 min,  0.003 sec
 * total energy  :   -38.8151731 Eh     change       -0.4264168E-05 Eh
   gradient norm :     0.0007832 Eh/α   predicted    -0.1977941E-05 ( -53.61%)
   displ. norm   :     0.0609856 α      lambda       -0.3228105E-05
   maximum displ.:     0.0396443 α      in ANC's #3, #1, #4, ...

   *** GEOMETRY OPTIMIZATION CONVERGED AFTER 48 ITERATIONS ***

------------------------------------------------------------------------
 total energy gain   :        -0.0359742 Eh      -22.5742 kcal/mol
 total RMSD          :         1.9594208 a0        1.0369 Å
 total power (kW/mol):        -1.9677147 (step) -159.4326 (real)
------------------------------------------------------------------------

 ANCopt (total)                0 d,  0 h,  0 min,  0.592 sec
 optimizer setup                ...        0 min,  0.000 sec (  0.079%)
 model hessian                  ...        0 min,  0.015 sec (  2.550%)
 ANC generation                 ...        0 min,  0.002 sec (  0.370%)
 coordinate transformation      ...        0 min,  0.000 sec (  0.063%)
 single point calculation       ...        0 min,  0.548 sec ( 92.527%)
 optimization log               ...        0 min,  0.007 sec (  1.192%)
 hessian update                 ...        0 min,  0.001 sec (  0.142%)
 rational function              ...        0 min,  0.015 sec (  2.579%)

================
 final structure:
================
21
 xtb: 6.6.0 (conda-forge)
C            3.27044052542153       -0.37381354043932        1.51832801877416
C            2.03954691610553       -0.24776896786988        0.68105948028866
O            1.94096089108585       -0.49156840972042       -0.49323651573288
S            0.66226918313720        0.36726568899512        1.62989345719746
C           -0.57602386331394        0.60436796104876        0.37376496668699
C           -1.12022744553358        1.87706351010948        0.27160044968140
C           -2.05227255099403        2.16224689909704       -0.70988189462968
C           -2.42544008036617        1.18071567407599       -1.61541907840037
C           -1.88339464689658       -0.08557237078967       -1.51512782587849
C           -0.97091536807209       -0.40172249290835       -0.50805374661744
C           -0.50247350512671       -1.80982730365564       -0.45544342190469
O           -0.49554503195915       -2.54870254526190       -1.41391430202085
O           -0.15554871503814       -2.22663181274061        0.76229286523362
H            3.01435249222703       -0.48427519887524        2.56838996825149
H            3.86625037764659       -1.21589100986146        1.17086825772551
H            3.86121902820445        0.53443738647251        1.39365041495837
H           -0.80187034676488        2.63853067563963        0.96686191509343
H           -2.47433450902935        3.15325185624912       -0.77470364380127
H           -3.13701203947193        1.40087747590535       -2.39598152372997
H           -2.16036198117046       -0.86768274725244       -2.20589102323239
H            0.10028066990800       -3.16530072821755        0.75094318205678

 Bond Distances (Angstroems)
 ---------------------------
C1-C2=1.4940         C1-H14=1.0865        C1-H15=1.0885        C1-H16=1.0906        C2-C1=1.4940         C2-O3=1.2034         
C2-S4=1.7820         O3-C2=1.2034         S4-C2=1.7820         S4-C5=1.7797         C5-S4=1.7797         C5-C6=1.3879         
C5-C10=1.3949        C6-C5=1.3879         C6-C7=1.3832         C6-H17=1.0792        C7-C6=1.3832         C7-C8=1.3866         
C7-H18=1.0791        C8-C7=1.3866         C8-C9=1.3811         C8-H19=1.0789        C9-C8=1.3811         C9-C10=1.3953        
C9-H20=1.0796        C10-C5=1.3949        C10-C9=1.3953        C10-C11=1.4849       C11-C10=1.4849       C11-O12=1.2102       
C11-O13=1.3330       O12-C11=1.2102       O13-C11=1.3330       O13-H21=0.9730       H14-C1=1.0865        H15-C1=1.0885        
H16-C1=1.0906        H17-C6=1.0792        H18-C7=1.0791        H19-C8=1.0789        H20-C9=1.0796        H21-O13=0.9730       
 C  H  Rav=1.0832 sigma=0.0048  Rmin=1.0789  Rmax=1.0906     7
 C  C  Rav=1.4135 sigma=0.0442  Rmin=1.3811  Rmax=1.4940     8
 O  H  Rav=0.9730 sigma=0.0000  Rmin=0.9730  Rmax=0.9730     1
 O  C  Rav=1.2489 sigma=0.0596  Rmin=1.2034  Rmax=1.3330     3
 S  C  Rav=1.7809 sigma=0.0011  Rmin=1.7797  Rmax=1.7820     2

 selected bond angles (degree)
 --------------------
H14-C1-C2=110.86               H15-C1-C2=109.72               H15-C1-H14=111.03              H16-C1-C2=108.18               
H16-C1-H14=108.83              H16-C1-H15=108.13              O3-C2-C1=126.68                S4-C2-C1=111.56                
S4-C2-O3=121.75                C5-S4-C2=102.00                C6-C5-S4=116.55                C10-C5-S4=123.17               
C10-C5-C6=120.25               C7-C6-C5=120.36                H17-C6-C5=118.94               H17-C6-C7=120.69               
C8-C7-C6=119.92                H18-C7-C6=119.70               H18-C7-C8=120.37               C9-C8-C7=119.73                
H19-C8-C7=120.37               H19-C8-C9=119.90               C10-C9-C8=121.12               H20-C9-C8=121.14               
H20-C9-C10=117.74              C9-C10-C5=118.55               C11-C10-C5=124.91              C11-C10-C9=116.54              

 selected dihedral angles (degree)
 ---------------------------------
O3-C2-C1-H14=202.87           O3-C2-C1-H15=325.86           O3-C2-C1-H16= 83.61           S4-C2-C1-H14= 24.23           
S4-C2-C1-H15=147.22           S4-C2-C1-H16=264.97           C5-S4-C2-C1=173.37            C5-S4-C2-O3=354.65            
C6-C5-S4-C2=236.15            C10-C5-S4-C2= 54.07           C7-C6-C5-S4=177.58            C7-C6-C5-C10=359.59           
H17-C6-C5-S4=357.79           H17-C6-C5-C10=179.80          C8-C7-C6-C5=358.63            C8-C7-C6-H17=178.42           
H18-C7-C6-C5=179.52           H18-C7-C6-H17=359.30          C9-C8-C7-C6=  1.30            C9-C8-C7-H18=180.41           
H19-C8-C7-C6=181.22           H19-C8-C7-H18=  0.33          C10-C9-C8-C7=  0.54           C10-C9-C8-H19=180.62          
H20-C9-C8-C7=179.79           H20-C9-C8-H19=359.87          C9-C10-C5-S4=184.35           C9-C10-C5-C6=  2.20           
C11-C10-C5-S4=  4.98          C11-C10-C5-C6=182.82          C5-C10-C9-C8=357.72           C5-C10-C9-H20=178.45          
C11-C10-C9-C8=177.15          C11-C10-C9-H20=357.88         
           -------------------------------------------------
          |                Final Singlepoint                |
           -------------------------------------------------

          ...................................................
          :                      SETUP                      :
          :.................................................:
          :  # basis functions                  66          :
          :  # atomic orbitals                  65          :
          :  # shells                           35          :
          :  # electrons                        68          :
          :  max. iterations                   250          :
          :  Hamiltonian                  GFN2-xTB          :
          :  restarted?                      false          :
          :  GBSA solvation                   true          :
          :  PC potential                    false          :
          :  electronic temp.          300.0000000     K    :
          :  accuracy                    1.0000000          :
          :  -> integral cutoff          0.2500000E+02      :
          :  -> integral neglect         0.1000000E-07      :
          :  -> SCF convergence          0.1000000E-05 Eh   :
          :  -> wf. convergence          0.1000000E-03 e    :
          :  Broyden damping             0.4000000          :
          ...................................................

 iter      E             dE          RMSdq      gap      omega  full diag
   1    -39.3007590 -0.393008E+02  0.908E-05    2.99       0.0  T
   2    -39.3007590 -0.152411E-10  0.597E-05    2.99     365.5  T
   3    -39.3007590 -0.208189E-11  0.392E-05    2.99     556.1  T

   *** convergence criteria satisfied after 3 iterations ***

         #    Occupation            Energy/Eh            Energy/eV
      -------------------------------------------------------------
         1        2.0000           -0.7506387             -20.4259
       ...           ...                  ...                  ...
        28        2.0000           -0.4576594             -12.4535
        29        2.0000           -0.4441806             -12.0868
        30        2.0000           -0.4379668             -11.9177
        31        2.0000           -0.4313474             -11.7376
        32        2.0000           -0.4269425             -11.6177
        33        2.0000           -0.4147116             -11.2849
        34        2.0000           -0.3953061             -10.7568 (HOMO)
        35                         -0.2855857              -7.7712 (LUMO)
        36                         -0.2638718              -7.1803
        37                         -0.2511993              -6.8355
        38                         -0.2092694              -5.6945
        39                         -0.2052954              -5.5864
       ...                                ...                  ...
        65                          0.6616832              18.0053
      -------------------------------------------------------------
                  HL-Gap            0.1097204 Eh            2.9856 eV
             Fermi-level           -0.3404459 Eh           -9.2640 eV

 SCC (total)                   0 d,  0 h,  0 min,  0.009 sec
 SCC setup                      ...        0 min,  0.000 sec (  4.068%)
 Dispersion                     ...        0 min,  0.000 sec (  1.403%)
 classical contributions        ...        0 min,  0.000 sec (  0.414%)
 integral evaluation            ...        0 min,  0.001 sec ( 13.076%)
 iterations                     ...        0 min,  0.004 sec ( 47.040%)
 molecular gradient             ...        0 min,  0.003 sec ( 32.184%)
 printout                       ...        0 min,  0.000 sec (  1.586%)

         :::::::::::::::::::::::::::::::::::::::::::::::::::::
         ::                     SUMMARY                     ::
         :::::::::::::::::::::::::::::::::::::::::::::::::::::
         :: total energy             -38.815173102258 Eh    ::
         :: total w/o Gsasa/hb       -38.797133752917 Eh    ::
         :: gradient norm              0.000783726688 Eh/a0 ::
         :: HOMO-LUMO gap              2.985643235826 eV    ::
         ::.................................................::
         :: SCC energy               -39.300758987844 Eh    ::
         :: -> isotropic ES            0.090555388303 Eh    ::
         :: -> anisotropic ES         -0.004263264515 Eh    ::
         :: -> anisotropic XC          0.010647098050 Eh    ::
         :: -> dispersion             -0.021945965255 Eh    ::
         :: -> Gsolv                  -0.026892923717 Eh    ::
         ::    -> Gelec               -0.008853574376 Eh    ::
         ::    -> Gsasa               -0.019002388503 Eh    ::
         ::    -> Ghb                 -0.004235615589 Eh    ::
         ::    -> Gshift               0.005198654751 Eh    ::
         :: repulsion energy           0.485483416152 Eh    ::
         :: add. restraining           0.000000000000 Eh    ::
         :: total charge              -0.000000000000 e     ::
         :::::::::::::::::::::::::::::::::::::::::::::::::::::

           -------------------------------------------------
          |                Property Printout                |
           -------------------------------------------------

    * Orbital Energies and Occupations

         #    Occupation            Energy/Eh            Energy/eV
      -------------------------------------------------------------
         1        2.0000           -0.7506387             -20.4259
       ...           ...                  ...                  ...
        22        2.0000           -0.5036329             -13.7045
        23        2.0000           -0.5002704             -13.6130
        24        2.0000           -0.4890074             -13.3066
        25        2.0000           -0.4873031             -13.2602
        26        2.0000           -0.4823748             -13.1261
        27        2.0000           -0.4806827             -13.0800
        28        2.0000           -0.4576594             -12.4535
        29        2.0000           -0.4441806             -12.0868
        30        2.0000           -0.4379668             -11.9177
        31        2.0000           -0.4313474             -11.7376
        32        2.0000           -0.4269425             -11.6177
        33        2.0000           -0.4147116             -11.2849
        34        2.0000           -0.3953061             -10.7568 (HOMO)
        35                         -0.2855857              -7.7712 (LUMO)
        36                         -0.2638718              -7.1803
        37                         -0.2511993              -6.8355
        38                         -0.2092694              -5.6945
        39                         -0.2052954              -5.5864
        40                         -0.1502226              -4.0878
        41                         -0.1112451              -3.0271
        42                         -0.0173334              -0.4717
        43                          0.0169474               0.4612
        44                          0.0205157               0.5583
        45                          0.0541404               1.4732
       ...                                ...                  ...
        65                          0.6616832              18.0053
      -------------------------------------------------------------
                  HL-Gap            0.1097204 Eh            2.9856 eV
             Fermi-level           -0.3404459 Eh           -9.2640 eV

     #   Z          covCN         q      C6AA      α(0)
     1   6 C        3.806    -0.150    23.394     6.885
     2   6 C        2.805     0.270    22.438     7.760
     3   8 O        0.874    -0.397    21.610     6.233
     4  16 S        2.102    -0.115   145.851    20.326
     5   6 C        2.967     0.063    26.594     8.459
     6   6 C        2.978    -0.034    28.843     8.809
     7   6 C        2.920    -0.022    28.558     8.763
     8   6 C        2.917    -0.027    28.674     8.781
     9   6 C        2.930    -0.020    28.516     8.758
    10   6 C        2.991    -0.013    28.332     8.731
    11   6 C        2.698     0.368    20.753     7.456
    12   8 O        0.857    -0.452    22.749     6.395
    13   8 O        1.660    -0.389    20.641     6.133
    14   1 H        0.925     0.090     1.875     2.141
    15   1 H        0.925     0.091     1.871     2.139
    16   1 H        0.924     0.103     1.758     2.074
    17   1 H        0.926     0.069     2.094     2.263
    18   1 H        0.926     0.067     2.117     2.275
    19   1 H        0.926     0.064     2.157     2.297
    20   1 H        0.926     0.063     2.159     2.298
    21   1 H        0.804     0.371     0.543     1.157

 Mol. C6AA /au·bohr⁶  :       6798.091347
 Mol. C8AA /au·bohr⁸  :     185332.450118
 Mol. α(0) /au        :        130.134219


Wiberg/Mayer (AO) data.
largest (>0.10) Wiberg bond orders for each atom

 ---------------------------------------------------------------------------
     #   Z sym  total        # sym  WBO       # sym  WBO       # sym  WBO
 ---------------------------------------------------------------------------
     1   6 C    3.984 --     2 C    1.017    14 H    0.972    15 H    0.964
                            16 H    0.941
     2   6 C    3.924 --     3 O    1.796     4 S    1.055     1 C    1.017
     3   8 O    2.114 --     2 C    1.796     4 S    0.204
     4  16 S    2.430 --     2 C    1.055     5 C    1.005     3 O    0.204
     5   6 C    3.966 --     6 C    1.412    10 C    1.366     4 S    1.005
     6   6 C    3.988 --     7 C    1.441     5 C    1.412    17 H    0.965
                             9 C    0.105
     7   6 C    3.988 --     6 C    1.441     8 C    1.424    18 H    0.967
                            10 C    0.101
     8   6 C    3.988 --     9 C    1.454     7 C    1.424    19 H    0.967
     9   6 C    3.987 --     8 C    1.454    10 C    1.381    20 H    0.964
                             6 C    0.105
    10   6 C    3.987 --     9 C    1.381     5 C    1.366    11 C    1.000
                             7 C    0.101
    11   6 C    3.914 --    12 O    1.711    13 O    1.147    10 C    1.000
    12   8 O    2.002 --    11 C    1.711    13 O    0.169
    13   8 O    2.199 --    11 C    1.147    21 H    0.837    12 O    0.169
    14   1 H    0.992 --     1 C    0.972
    15   1 H    0.991 --     1 C    0.964
    16   1 H    0.989 --     1 C    0.941
    17   1 H    0.995 --     6 C    0.965
    18   1 H    0.995 --     7 C    0.967
    19   1 H    0.995 --     8 C    0.967
    20   1 H    0.996 --     9 C    0.964
    21   1 H    0.862 --    13 O    0.837
 ---------------------------------------------------------------------------

Topologies differ in total number of bonds
Writing topology from bond orders to xtbtopo.mol

molecular dipole:
                 x           y           z       tot (Debye)
 q only:       -0.042       1.043       1.386
   full:        0.006       0.791       1.159       3.567
molecular quadrupole (traceless):
                xx          xy          yy          xz          yz          zz
 q only:        7.240      -5.632      -0.687      10.944      -9.848      -6.553
  q+dip:        7.285      -6.188       3.628      11.772     -10.703     -10.913
   full:        8.835      -5.358       2.203      10.031     -11.756     -11.038

           -------------------------------------------------
          |                Geometry Summary                 |
           -------------------------------------------------

      molecular mass/u    :      196.2231513
   center of mass at/Å    :       -0.0333053      -0.1813332       0.0606446
  moments of inertia/u·Å² :        0.4682940E+03   0.7781131E+03   0.1061409E+04
rotational constants/cm⁻¹ :        0.3599797E-01   0.2166476E-01   0.1588232E-01

 * 17 selected distances

     #   Z          #   Z                                           value/Å
     2   6 C        3   8 O                                       1.2033822
     5   6 C        6   6 C                                       1.3879299
     6   6 C        7   6 C                                       1.3832374
     7   6 C        8   6 C                                       1.3865985
     8   6 C        9   6 C                                       1.3810711
     5   6 C       10   6 C                                       1.3949057
     9   6 C       10   6 C                                       1.3952662 (max)
    11   6 C       12   8 O                                       1.2102278
    11   6 C       13   8 O                                       1.3330284
     1   6 C       14   1 H                                       1.0864682
     1   6 C       15   1 H                                       1.0884909
     1   6 C       16   1 H                                       1.0906345
     6   6 C       17   1 H                                       1.0791535
     7   6 C       18   1 H                                       1.0790872
     8   6 C       19   1 H                                       1.0789272
     9   6 C       20   1 H                                       1.0796118
    13   8 O       21   1 H                                       0.9729733 (min)

 * 4 distinct bonds (by element types)

   Z      Z             #   av. dist./Å        max./Å        min./Å
   1 H    6 C           7     1.0831962     1.0906345     1.0789272
   6 C    6 C           6     1.3881681     1.3952662     1.3810711
   1 H    8 O           1     0.9729733     0.9729733     0.9729733
   6 C    8 O           3     1.2488795     1.3330284     1.2033822


optimized geometry written to: xtbopt.xyz


           -------------------------------------------------
          | TOTAL ENERGY              -38.815173102258 Eh   |
          | GRADIENT NORM               0.000783726688 Eh/α |
          | HOMO-LUMO GAP               2.985643235826 eV   |
           -------------------------------------------------
########################################################################
[WARNING] Runtime exception occurred
-1- restart_readRestart: Dimension missmatch in restart file.
########################################################################

------------------------------------------------------------------------
 * finished run on 2024/09/13 at 17:42:33.476     
------------------------------------------------------------------------
 total:
 * wall-time:     0 d,  0 h,  0 min,  1.036 sec
 *  cpu-time:     0 d,  0 h,  0 min,  6.570 sec
 * ratio c/w:     6.339 speedup
 SCF:
 * wall-time:     0 d,  0 h,  0 min,  0.052 sec
 *  cpu-time:     0 d,  0 h,  0 min,  0.307 sec
 * ratio c/w:     5.905 speedup
 ANC optimizer:
 * wall-time:     0 d,  0 h,  0 min,  0.603 sec
 *  cpu-time:     0 d,  0 h,  0 min,  4.496 sec
 * ratio c/w:     7.451 speedup

