      -----------------------------------------------------------      
     |                   =====================                   |     
     |                           x T B                           |     
     |                   =====================                   |     
     |                         S. Grimme                         |     
     |          Mulliken Center for Theoretical Chemistry        |     
     |                    University of Bonn                     |     
      -----------------------------------------------------------      

   * xtb version 6.6.0 (conda-forge) compiled by 'runner@Mac-1676020848589.local' on 2023-02-10

   xtb is free software: you can redistribute it and/or modify it under
   the terms of the GNU Lesser General Public License as published by
   the Free Software Foundation, either version 3 of the License, or
   (at your option) any later version.
   
   xtb is distributed in the hope that it will be useful,
   but WITHOUT ANY WARRANTY; without even the implied warranty of
   MERCHANTABILITY or FITNESS FOR A PARTICULAR PURPOSE.  See the
   GNU Lesser General Public License for more details.
   
   Cite this work as:
   * C. Bannwarth, E. Caldeweyher, S. Ehlert, A. Hansen, P. Pracht,
     J. Seibert, S. Spicher, S. Grimme, WIREs Comput. Mol. Sci., 2020, 11,
     e01493. DOI: 10.1002/wcms.1493
   
   for GFN2-xTB:
   * C. Bannwarth, S. Ehlert and S. Grimme., J. Chem. Theory Comput., 2019,
     15, 1652-1671. DOI: 10.1021/acs.jctc.8b01176
   for GFN1-xTB:
   * S. Grimme, C. Bannwarth, P. Shushkov, J. Chem. Theory Comput., 2017,
     13, 1989-2009. DOI: 10.1021/acs.jctc.7b00118
   for GFN0-xTB:
   * P. Pracht, E. Caldeweyher, S. Ehlert, S. Grimme, ChemRxiv, 2019, preprint.
     DOI: 10.26434/chemrxiv.8326202.v1
   for GFN-FF:
   * S. Spicher and S. Grimme, Angew. Chem. Int. Ed., 2020, 59, 15665-15673.
     DOI: 10.1002/anie.202004239
   
   for ALPB and GBSA implicit solvation:
   * S. Ehlert, M. Stahn, S. Spicher, S. Grimme, J. Chem. Theory Comput.,
     2021, 17, 4250-4261. DOI: 10.1021/acs.jctc.1c00471
   
   for DFT-D4:
   * E. Caldeweyher, C. Bannwarth and S. Grimme, J. Chem. Phys., 2017,
     147, 034112. DOI: 10.1063/1.4993215
   * E. Caldeweyher, S. Ehlert, A. Hansen, H. Neugebauer, S. Spicher,
     C. Bannwarth and S. Grimme, J. Chem. Phys., 2019, 150, 154122.
     DOI: 10.1063/1.5090222
   * E. Caldeweyher, J.-M. Mewes, S. Ehlert and S. Grimme, Phys. Chem. Chem. Phys.
     2020, 22, 8499-8512. DOI: 10.1039/D0CP00502A
   
   for sTDA-xTB:
   * S. Grimme and C. Bannwarth, J. Chem. Phys., 2016, 145, 054103.
     DOI: 10.1063/1.4959605
   
   in the mass-spec context:
   * V. Asgeirsson, C. Bauer and S. Grimme, Chem. Sci., 2017, 8, 4879.
     DOI: 10.1039/c7sc00601b
   * J. Koopman and S. Grimme, ACS Omega 2019, 4, 12, 15120-15133.
     DOI: 10.1021/acsomega.9b02011
   
   for metadynamics refer to:
   * S. Grimme, J. Chem. Theory Comput., 2019, 155, 2847-2862
     DOI: 10.1021/acs.jctc.9b00143
   
   for SPH calculations refer to:
   * S. Spicher and S. Grimme, J. Chem. Theory Comput., 2021, 17, 1701-1714
     DOI: 10.1021/acs.jctc.0c01306
   
   with help from (in alphabetical order)
   P. Atkinson, C. Bannwarth, F. Bohle, G. Brandenburg, E. Caldeweyher
   M. Checinski, S. Dohm, S. Ehlert, S. Ehrlich, I. Gerasimov, C. Hölzer
   A. Katbashev, J. Koopman, C. Lavigne, S. Lehtola, F. März, M. Müller,
   F. Musil, H. Neugebauer, J. Pisarek, C. Plett, P. Pracht, F. Pultar,
   J. Seibert, P. Shushkov, S. Spicher, M. Stahn, M. Steiner, T. Strunk,
   J. Stückrath, T. Rose, and J. Unsleber
   
 * started run on 2024/09/14 at 13:17:06.431     

           -------------------------------------------------
          |                Calculation Setup                |
           -------------------------------------------------

          program call               : xtb ibuprofen.xyz --opt --gfn2
          coordinate file            : ibuprofen.xyz
          omp threads                :                     8

   ID    Z sym.   atoms
    1    6 C      1-13
    2    8 O      14, 15
    3    1 H      16-33

           -------------------------------------------------
          |                 G F N 2 - x T B                 |
           -------------------------------------------------

        Reference                      10.1021/acs.jctc.8b01176
      * Hamiltonian:
        H0-scaling (s, p, d)           1.850000    2.230000    2.230000
        zeta-weighting                 0.500000
      * Dispersion:
        s8                             2.700000
        a1                             0.520000
        a2                             5.000000
        s9                             5.000000
      * Repulsion:
        kExp                           1.500000    1.000000
        rExp                           1.000000
      * Coulomb:
        alpha                          2.000000
        third order                    shell-resolved
        anisotropic                    true
        a3                             3.000000
        a5                             4.000000
        cn-shift                       1.200000
        cn-exp                         4.000000
        max-rad                        5.000000


          ...................................................
          :                      SETUP                      :
          :.................................................:
          :  # basis functions                  78          :
          :  # atomic orbitals                  78          :
          :  # shells                           48          :
          :  # electrons                        82          :
          :  max. iterations                   250          :
          :  Hamiltonian                  GFN2-xTB          :
          :  restarted?                      false          :
          :  GBSA solvation                  false          :
          :  PC potential                    false          :
          :  electronic temp.          300.0000000     K    :
          :  accuracy                    1.0000000          :
          :  -> integral cutoff          0.2500000E+02      :
          :  -> integral neglect         0.1000000E-07      :
          :  -> SCF convergence          0.1000000E-05 Eh   :
          :  -> wf. convergence          0.1000000E-03 e    :
          :  Broyden damping             0.4000000          :
          ...................................................

 iter      E             dE          RMSdq      gap      omega  full diag
   1    -45.6480358 -0.456480E+02  0.385E+00    4.26       0.0  T
   2    -45.7207141 -0.726783E-01  0.212E+00    3.71       1.0  T
   3    -45.7223267 -0.161255E-02  0.121E+00    4.02       1.0  T
   4    -45.7327115 -0.103848E-01  0.212E-01    3.56       1.0  T
   5    -45.7332939 -0.582402E-03  0.823E-02    3.58       1.0  T
   6    -45.7333324 -0.385102E-04  0.496E-02    3.59       1.0  T
   7    -45.7333701 -0.377360E-04  0.150E-02    3.60       1.2  T
   8    -45.7333728 -0.265677E-05  0.498E-03    3.60       3.5  T
   9    -45.7333730 -0.197065E-06  0.251E-03    3.60       6.9  T
  10    -45.7333730 -0.298813E-07  0.112E-03    3.60      15.5  T
  11    -45.7333730 -0.191282E-07  0.461E-04    3.60      37.7  T
  12    -45.7333730 -0.985033E-09  0.196E-04    3.60      88.7  T

   *** convergence criteria satisfied after 12 iterations ***

         #    Occupation            Energy/Eh            Energy/eV
      -------------------------------------------------------------
         1        2.0000           -0.7263000             -19.7636
       ...           ...                  ...                  ...
        35        2.0000           -0.4365731             -11.8798
        36        2.0000           -0.4319354             -11.7536
        37        2.0000           -0.4222415             -11.4898
        38        2.0000           -0.4165361             -11.3345
        39        2.0000           -0.4100579             -11.1582
        40        2.0000           -0.4005571             -10.8997
        41        2.0000           -0.3879773             -10.5574 (HOMO)
        42                         -0.2556018              -6.9553 (LUMO)
        43                         -0.2245001              -6.1090
        44                         -0.2231101              -6.0711
        45                         -0.1041745              -2.8347
        46                         -0.0386525              -1.0518
       ...                                ...                  ...
        78                          0.6164963              16.7757
      -------------------------------------------------------------
                  HL-Gap            0.1323756 Eh            3.6021 eV
             Fermi-level           -0.3217895 Eh           -8.7563 eV

 SCC (total)                   0 d,  0 h,  0 min,  0.041 sec
 SCC setup                      ...        0 min,  0.002 sec (  5.111%)
 Dispersion                     ...        0 min,  0.000 sec (  1.124%)
 classical contributions        ...        0 min,  0.000 sec (  0.860%)
 integral evaluation            ...        0 min,  0.002 sec (  4.582%)
 iterations                     ...        0 min,  0.032 sec ( 76.461%)
 molecular gradient             ...        0 min,  0.004 sec ( 10.671%)
 printout                       ...        0 min,  0.000 sec (  1.141%)

         :::::::::::::::::::::::::::::::::::::::::::::::::::::
         ::                     SUMMARY                     ::
         :::::::::::::::::::::::::::::::::::::::::::::::::::::
         :: total energy             -45.150038985722 Eh    ::
         :: gradient norm              0.139431155513 Eh/a0 ::
         :: HOMO-LUMO gap              3.602122394313 eV    ::
         ::.................................................::
         :: SCC energy               -45.733373031525 Eh    ::
         :: -> isotropic ES            0.054930517770 Eh    ::
         :: -> anisotropic ES          0.006772311555 Eh    ::
         :: -> anisotropic XC          0.021030357674 Eh    ::
         :: -> dispersion             -0.029611189083 Eh    ::
         :: repulsion energy           0.583061305857 Eh    ::
         :: add. restraining           0.000000000000 Eh    ::
         :: total charge               0.000000000000 e     ::
         :::::::::::::::::::::::::::::::::::::::::::::::::::::

      ----------------------------------------------------------- 
     |                   =====================                   |
     |                        A N C O P T                        |
     |                   =====================                   |
     |               Approximate Normal Coordinate               |
     |                Rational Function Optimizer                |
      ----------------------------------------------------------- 

          ...................................................
          :                      SETUP                      :
          :.................................................:
          :   optimization level            normal          :
          :   max. optcycles                   200          :
          :   ANC micro-cycles                  20          :
          :   degrees of freedom                93          :
          :.................................................:
          :   RF solver                   davidson          :
          :   write xtbopt.log                true          :
          :   linear?                        false          :
          :   energy convergence         0.5000000E-05 Eh   :
          :   grad. convergence          0.1000000E-02 Eh/α :
          :   maxmium RF displ.          1.0000000          :
          :   Hlow (freq-cutoff)         0.1000000E-01      :
          :   Hmax (freq-cutoff)         5.0000000          :
          :   S6 in model hess.         20.0000000          :
          ...................................................

generating ANC from model Hessian ...
Using Lindh-Hessian (1995)
 Shifting diagonal of input Hessian by    9.6304356124541496E-003
 Lowest  eigenvalues of input Hessian
    0.000000    0.000000    0.000000    0.000000    0.000000    0.000000
    0.010000    0.010195    0.010875    0.011605    0.012036    0.013446
    0.014720    0.016800    0.017662    0.017761    0.018025    0.020150
 Highest eigenvalues
    1.545633    1.631771    1.811782    1.885775    1.925358    2.014237


........................................................................
.............................. CYCLE    1 ..............................
........................................................................

 iter      E             dE          RMSdq      gap      omega  full diag
   1    -45.7333730 -0.457334E+02  0.718E-05    3.60       0.0  T
   2    -45.7333730 -0.339710E-10  0.413E-05    3.60     421.6  T
   3    -45.7333730 -0.126761E-10  0.266E-05    3.60     655.4  T
     SCC iter.                  ...        0 min,  0.004 sec
     gradient                   ...        0 min,  0.003 sec
 * total energy  :   -45.1500390 Eh     change       -0.5090897E-09 Eh
   gradient norm :     0.1394336 Eh/α   predicted     0.0000000E+00 (-100.00%)
   displ. norm   :     0.3254520 α      lambda       -0.2530209E-01
   maximum displ.:     0.1565195 α      in ANC's #41, #53, #23, ...

........................................................................
.............................. CYCLE    2 ..............................
........................................................................

 iter      E             dE          RMSdq      gap      omega  full diag
   1    -45.8065068 -0.458065E+02  0.234E-01    4.11       0.0  T
   2    -45.8067974 -0.290585E-03  0.141E-01    4.01       1.0  T
   3    -45.8068060 -0.862860E-05  0.656E-02    4.01       1.0  T
   4    -45.8068326 -0.266311E-04  0.118E-02    3.98       1.5  T
   5    -45.8068338 -0.120681E-05  0.567E-03    3.99       3.1  T
   6    -45.8068341 -0.266492E-06  0.267E-03    3.99       6.5  T
   7    -45.8068342 -0.913344E-07  0.997E-04    3.99      17.5  T
   8    -45.8068342 -0.134106E-07  0.439E-04    3.99      39.7  T
     SCC iter.                  ...        0 min,  0.006 sec
     gradient                   ...        0 min,  0.003 sec
 * total energy  :   -45.1673647 Eh     change       -0.1732571E-01 Eh
   gradient norm :     0.0460238 Eh/α   predicted    -0.1399829E-01 ( -19.21%)
   displ. norm   :     0.2771211 α      lambda       -0.6268112E-02
   maximum displ.:     0.1222792 α      in ANC's #41, #23, #25, ...

........................................................................
.............................. CYCLE    3 ..............................
........................................................................

 iter      E             dE          RMSdq      gap      omega  full diag
   1    -45.8388262 -0.458388E+02  0.147E-01    4.19       0.0  T
   2    -45.8389052 -0.790208E-04  0.884E-02    4.15       1.0  T
   3    -45.8389048  0.402170E-06  0.338E-02    4.14       1.0  T
   4    -45.8389132 -0.835106E-05  0.651E-03    4.13       2.7  T
   5    -45.8389135 -0.393132E-06  0.325E-03    4.13       5.4  T
   6    -45.8389137 -0.167824E-06  0.139E-03    4.13      12.6  T
   7    -45.8389137 -0.275035E-07  0.489E-04    4.13      35.6  T
   8    -45.8389137 -0.182240E-08  0.222E-04    4.13      78.6  T
     SCC iter.                  ...        0 min,  0.006 sec
     gradient                   ...        0 min,  0.003 sec
 * total energy  :   -45.1705479 Eh     change       -0.3183254E-02 Eh
   gradient norm :     0.0147085 Eh/α   predicted    -0.3375660E-02 (   6.04%)
   displ. norm   :     0.1140953 α      lambda       -0.5821129E-03
   maximum displ.:     0.0489327 α      in ANC's #6, #21, #8, ...

........................................................................
.............................. CYCLE    4 ..............................
........................................................................

 iter      E             dE          RMSdq      gap      omega  full diag
   1    -45.8372986 -0.458373E+02  0.535E-02    4.09       0.0  T
   2    -45.8373060 -0.742378E-05  0.312E-02    4.10       1.0  T
   3    -45.8373052  0.764811E-06  0.106E-02    4.10       1.6  T
   4    -45.8373061 -0.838777E-06  0.337E-03    4.10       5.2  T
   5    -45.8373065 -0.432971E-06  0.901E-04    4.10      19.3  T
   6    -45.8373065 -0.596444E-08  0.518E-04    4.10      33.6  T
     SCC iter.                  ...        0 min,  0.004 sec
     gradient                   ...        0 min,  0.003 sec
 * total energy  :   -45.1708471 Eh     change       -0.2991960E-03 Eh
   gradient norm :     0.0054058 Eh/α   predicted    -0.2949581E-03 (  -1.42%)
   displ. norm   :     0.1162262 α      lambda       -0.2177162E-03
   maximum displ.:     0.0831887 α      in ANC's #6, #8, #12, ...

........................................................................
.............................. CYCLE    5 ..............................
........................................................................

 iter      E             dE          RMSdq      gap      omega  full diag
   1    -45.8349756 -0.458350E+02  0.412E-02    4.06       0.0  T
   2    -45.8349796 -0.403552E-05  0.241E-02    4.07       1.0  T
   3    -45.8349794  0.197291E-06  0.682E-03    4.07       2.6  T
   4    -45.8349796 -0.253391E-06  0.207E-03    4.07       8.4  T
   5    -45.8349798 -0.149132E-06  0.656E-04    4.07      26.5  T
   6    -45.8349798 -0.424792E-08  0.368E-04    4.07      47.3  T
     SCC iter.                  ...        0 min,  0.004 sec
     gradient                   ...        0 min,  0.003 sec
 * total energy  :   -45.1709716 Eh     change       -0.1244351E-03 Eh
   gradient norm :     0.0045247 Eh/α   predicted    -0.1103292E-03 ( -11.34%)
   displ. norm   :     0.0907586 α      lambda       -0.7484883E-04
   maximum displ.:     0.0582096 α      in ANC's #6, #9, #5, ...

........................................................................
.............................. CYCLE    6 ..............................
........................................................................

 iter      E             dE          RMSdq      gap      omega  full diag
   1    -45.8352688 -0.458353E+02  0.246E-02    4.08       0.0  T
   2    -45.8352690 -0.164765E-06  0.146E-02    4.08       1.2  T
   3    -45.8352689  0.993510E-07  0.248E-03    4.08       7.0  T
   4    -45.8352691 -0.153207E-06  0.529E-04    4.08      32.9  T
   5    -45.8352691 -0.338424E-09  0.319E-04    4.08      54.6  T
     SCC iter.                  ...        0 min,  0.004 sec
     gradient                   ...        0 min,  0.003 sec
 * total energy  :   -45.1710276 Eh     change       -0.5603478E-04 Eh
   gradient norm :     0.0030679 Eh/α   predicted    -0.3773334E-04 ( -32.66%)
   displ. norm   :     0.1279038 α      lambda       -0.7141435E-04
   maximum displ.:     0.0727512 α      in ANC's #6, #9, #1, ...

........................................................................
.............................. CYCLE    7 ..............................
........................................................................

 iter      E             dE          RMSdq      gap      omega  full diag
   1    -45.8360956 -0.458361E+02  0.297E-02    4.08       0.0  T
   2    -45.8360959 -0.365859E-06  0.175E-02    4.08       1.0  T
   3    -45.8360959  0.328861E-07  0.198E-03    4.08       8.8  T
   4    -45.8360960 -0.659901E-07  0.783E-04    4.08      22.2  T
   5    -45.8360960 -0.129734E-07  0.326E-04    4.08      53.4  T
     SCC iter.                  ...        0 min,  0.005 sec
     gradient                   ...        0 min,  0.002 sec
 * total energy  :   -45.1710736 Eh     change       -0.4602095E-04 Eh
   gradient norm :     0.0018411 Eh/α   predicted    -0.3629248E-04 ( -21.14%)
   displ. norm   :     0.1081984 α      lambda       -0.2384493E-04
   maximum displ.:     0.0583922 α      in ANC's #9, #1, #6, ...

........................................................................
.............................. CYCLE    8 ..............................
........................................................................

 iter      E             dE          RMSdq      gap      omega  full diag
   1    -45.8368015 -0.458368E+02  0.235E-02    4.09       0.0  T
   2    -45.8368017 -0.273675E-06  0.138E-02    4.09       1.3  T
   3    -45.8368017  0.105034E-07  0.146E-03    4.09      11.9  T
   4    -45.8368017 -0.187298E-07  0.634E-04    4.09      27.5  T
   5    -45.8368018 -0.106082E-07  0.216E-04    4.09      80.4  T
     SCC iter.                  ...        0 min,  0.005 sec
     gradient                   ...        0 min,  0.003 sec
 * total energy  :   -45.1710957 Eh     change       -0.2202290E-04 Eh
   gradient norm :     0.0016009 Eh/α   predicted    -0.1198937E-04 ( -45.56%)
   displ. norm   :     0.0683903 α      lambda       -0.1414856E-04
   maximum displ.:     0.0389523 α      in ANC's #1, #9, #2, ...

........................................................................
.............................. CYCLE    9 ..............................
........................................................................

 iter      E             dE          RMSdq      gap      omega  full diag
   1    -45.8368803 -0.458369E+02  0.192E-02    4.09       0.0  T
   2    -45.8368803 -0.427609E-07  0.113E-02    4.09       1.5  T
   3    -45.8368803  0.357411E-07  0.133E-03    4.09      13.1  T
   4    -45.8368803 -0.571256E-07  0.373E-04    4.09      46.6  T
   5    -45.8368803 -0.462322E-09  0.205E-04    4.09      84.8  T
     SCC iter.                  ...        0 min,  0.003 sec
     gradient                   ...        0 min,  0.003 sec
 * total energy  :   -45.1711120 Eh     change       -0.1631826E-04 Eh
   gradient norm :     0.0010364 Eh/α   predicted    -0.7089339E-05 ( -56.56%)
   displ. norm   :     0.1074933 α      lambda       -0.1566419E-04
   maximum displ.:     0.0622274 α      in ANC's #1, #9, #7, ...

........................................................................
.............................. CYCLE   10 ..............................
........................................................................

 iter      E             dE          RMSdq      gap      omega  full diag
   1    -45.8365010 -0.458365E+02  0.283E-02    4.09       0.0  T
   2    -45.8365012 -0.151364E-06  0.167E-02    4.09       1.0  T
   3    -45.8365011  0.767117E-07  0.222E-03    4.09       7.8  T
   4    -45.8365012 -0.148346E-06  0.716E-04    4.09      24.3  T
   5    -45.8365012 -0.223406E-08  0.385E-04    4.09      45.2  T
     SCC iter.                  ...        0 min,  0.004 sec
     gradient                   ...        0 min,  0.003 sec
 * total energy  :   -45.1711281 Eh     change       -0.1616113E-04 Eh
   gradient norm :     0.0009913 Eh/α   predicted    -0.7875786E-05 ( -51.27%)
   displ. norm   :     0.0801720 α      lambda       -0.7962604E-05
   maximum displ.:     0.0486894 α      in ANC's #1, #7, #2, ...

........................................................................
.............................. CYCLE   11 ..............................
........................................................................

 iter      E             dE          RMSdq      gap      omega  full diag
   1    -45.8365797 -0.458366E+02  0.202E-02    4.09       0.0  T
   2    -45.8365798 -0.803807E-07  0.119E-02    4.09       1.5  T
   3    -45.8365798  0.260903E-07  0.156E-03    4.09      11.1  T
   4    -45.8365798 -0.710737E-07  0.571E-04    4.09      30.5  T
   5    -45.8365798 -0.945967E-09  0.272E-04    4.09      64.1  T
     SCC iter.                  ...        0 min,  0.004 sec
     gradient                   ...        0 min,  0.002 sec
 * total energy  :   -45.1711363 Eh     change       -0.8159763E-05 Eh
   gradient norm :     0.0007391 Eh/α   predicted    -0.3994340E-05 ( -51.05%)
   displ. norm   :     0.0608494 α      lambda       -0.5016022E-05
   maximum displ.:     0.0381272 α      in ANC's #1, #2, #7, ...

........................................................................
.............................. CYCLE   12 ..............................
........................................................................

 iter      E             dE          RMSdq      gap      omega  full diag
   1    -45.8365675 -0.458366E+02  0.142E-02    4.09       0.0  T
   2    -45.8365676 -0.409720E-07  0.837E-03    4.09       2.1  T
   3    -45.8365675  0.185836E-07  0.115E-03    4.09      15.2  T
   4    -45.8365676 -0.436328E-07  0.422E-04    4.09      41.2  T
   5    -45.8365676 -0.270440E-09  0.184E-04    4.09      94.8  T
     SCC iter.                  ...        0 min,  0.004 sec
     gradient                   ...        0 min,  0.003 sec
 * total energy  :   -45.1711416 Eh     change       -0.5274957E-05 Eh
   gradient norm :     0.0004850 Eh/α   predicted    -0.2513437E-05 ( -52.35%)
   displ. norm   :     0.0516027 α      lambda       -0.3662948E-05
   maximum displ.:     0.0322679 α      in ANC's #1, #2, #7, ...

........................................................................
.............................. CYCLE   13 ..............................
........................................................................

 iter      E             dE          RMSdq      gap      omega  full diag
   1    -45.8365379 -0.458365E+02  0.107E-02    4.09       0.0  T
   2    -45.8365379 -0.231245E-07  0.633E-03    4.09       2.7  T
   3    -45.8365379  0.749372E-08  0.833E-04    4.09      20.9  T
   4    -45.8365379 -0.207766E-07  0.314E-04    4.09      55.4  T
     SCC iter.                  ...        0 min,  0.003 sec
     gradient                   ...        0 min,  0.003 sec
 * total energy  :   -45.1711458 Eh     change       -0.4231691E-05 Eh
   gradient norm :     0.0004155 Eh/α   predicted    -0.1834839E-05 ( -56.64%)
   displ. norm   :     0.0604138 α      lambda       -0.3710471E-05
   maximum displ.:     0.0357484 α      in ANC's #1, #2, #4, ...

   *** GEOMETRY OPTIMIZATION CONVERGED AFTER 13 ITERATIONS ***

------------------------------------------------------------------------
 total energy gain   :        -0.0211068 Eh      -13.2447 kcal/mol
 total RMSD          :         0.1801781 a0        0.0953 Å
 total power (kW/mol):        -4.2627645 (step) -393.3586 (real)
------------------------------------------------------------------------

 ANCopt (total)                0 d,  0 h,  0 min,  0.141 sec
 optimizer setup                ...        0 min,  0.000 sec (  0.229%)
 model hessian                  ...        0 min,  0.013 sec (  9.279%)
 ANC generation                 ...        0 min,  0.002 sec (  1.530%)
 coordinate transformation      ...        0 min,  0.000 sec (  0.104%)
 single point calculation       ...        0 min,  0.109 sec ( 77.592%)
 optimization log               ...        0 min,  0.002 sec (  1.446%)
 hessian update                 ...        0 min,  0.000 sec (  0.263%)
 rational function              ...        0 min,  0.012 sec (  8.765%)

================
 final structure:
================
33
 xtb: 6.6.0 (conda-forge)
C           -3.26000752467764       -0.29496073890726       -1.26134166676427
C           -3.33774988100263        0.52123470128410        0.02537557435235
C           -2.96137494227834        1.97478063281493       -0.24617835547567
C           -2.46186020448090       -0.09085722180232        1.13832551850852
C           -1.00018918155605       -0.12404473915215        0.79878509181175
C           -0.44495431317642       -1.21165688603048        0.13431352276350
C            0.89669520061858       -1.23519092918566       -0.19719327388824
C            1.72339536212155       -0.16906017597917        0.13383869091596
C            1.17571559155085        0.91851184924712        0.79885774348267
C           -0.16706993641991        0.93722917705148        1.12997044634834
C            3.20003943970241       -0.20315201086393       -0.20048836882658
C            3.91341960603502       -1.32623143321211        0.55346905753038
C            3.31756154136951       -0.40261190384915       -1.69604321977591
O            3.29780534117690       -1.45662723918993       -2.27175988193325
O            3.41444374136295        0.76724787427821       -2.34258714766891
H           -2.24954899956127       -0.27814594433647       -1.66319006997113
H           -3.54532200800259       -1.32906243667296       -1.08052309903178
H           -3.93317439768437        0.11799381986341       -2.00953324664769
H           -4.37310984268193        0.49584333392404        0.38632344790379
H           -1.94328421358906        2.04068856998866       -0.62316494331533
H           -3.63040700079963        2.40375010804503       -0.98905366136090
H           -3.03513812226926        2.56910649910787        0.66202083782553
H           -2.81178780144766       -1.10785652029185        1.32969908421090
H           -2.60774204868875        0.49396955119048        2.04946283430704
H           -1.06913508339061       -2.05521987950311       -0.12232626762778
H            1.30532380409459       -2.08404008487704       -0.72467867648732
H            1.80434493606225        1.75603113966371        1.06632181732263
H           -0.57062873933086        1.78821355494977        1.65946010238769
H            3.64254975212472        0.76558116097659        0.04606734448480
H            4.98817599808359       -1.26229399069197        0.39960213904815
H            3.70356373235953       -1.25074307789300        1.61744442464700
H            3.57128113662276       -2.29225299600551        0.19308915557298
H            3.44826905775273        0.62342623605856       -3.30196495464905

 Bond Distances (Angstroems)
 ---------------------------
C1-C2=1.5257         C1-H16=1.0876        C1-H17=1.0879        C1-H18=1.0879        C2-C1=1.5257         C2-C3=1.5258         
C2-C4=1.5429         C2-H19=1.0968        C3-C2=1.5258         C3-H20=1.0876        C3-H21=1.0879        C3-H22=1.0879        
C4-C2=1.5429         C4-C5=1.5010         C4-H23=1.0924        C4-H24=1.0925        C5-C4=1.5010         C5-C6=1.3902         
C5-C10=1.3893        C6-C5=1.3902         C6-C7=1.3822         C6-H25=1.0803        C7-C6=1.3822         C7-C8=1.3891         
C7-H26=1.0797        C8-C7=1.3891         C8-C9=1.3874         C8-C11=1.5144        C9-C8=1.3874         C9-C10=1.3831        
C9-H27=1.0808        C10-C5=1.3893        C10-C9=1.3831        C10-H28=1.0805       C11-C8=1.5144        C11-C12=1.5293       
C11-C13=1.5134       C11-H29=1.0932       C12-C11=1.5293       C12-H30=1.0876       C12-H31=1.0871       C12-H32=1.0863       
C13-C11=1.5134       C13-O14=1.2012       C13-O15=1.3401       O14-C13=1.2012       O15-C13=1.3401       O15-H33=0.9707       
H16-C1=1.0876        H17-C1=1.0879        H18-C1=1.0879        H19-C2=1.0968        H20-C3=1.0876        H21-C3=1.0879        
H22-C3=1.0879        H23-C4=1.0924        H24-C4=1.0925        H25-C6=1.0803        H26-C7=1.0797        H27-C9=1.0808        
H28-C10=1.0805       H29-C11=1.0932       H30-C12=1.0876       H31-C12=1.0871       H32-C12=1.0863       H33-O15=0.9707       
 C  H  Rav=1.0873 sigma=0.0047  Rmin=1.0797  Rmax=1.0968    17
 C  C  Rav=1.4595 sigma=0.0679  Rmin=1.3822  Rmax=1.5429    13
 O  H  Rav=0.9707 sigma=0.0000  Rmin=0.9707  Rmax=0.9707     1
 O  C  Rav=1.2707 sigma=0.0695  Rmin=1.2012  Rmax=1.3401     2

 selected bond angles (degree)
 --------------------
H16-C1-C2=110.53               H17-C1-C2=110.79               H17-C1-H16=108.65              H18-C1-C2=110.21               
H18-C1-H16=108.36              H18-C1-H17=108.23              C3-C2-C1=110.30                C4-C2-C1=111.54                
C4-C2-C3=111.49                H19-C2-C1=108.26               H19-C2-C3=108.27               H19-C2-C4=106.82               
H20-C3-C2=110.51               H21-C3-C2=110.21               H21-C3-H20=108.37              H22-C3-C2=110.80               
H22-C3-H20=108.65              H22-C3-H21=108.24              C5-C4-C2=113.48                H23-C4-C2=108.29               
H23-C4-C5=109.33               H24-C4-C2=108.27               H24-C4-C5=109.30               H24-C4-H23=108.03              
C6-C5-C4=120.95                C10-C5-C4=120.88               C10-C5-C6=118.17               C7-C6-C5=121.04                
H25-C6-C5=119.58               H25-C6-C7=119.38               C8-C7-C6=120.49                H26-C7-C6=119.86               
H26-C7-C8=119.64               C9-C8-C7=118.74                C11-C8-C7=120.69               C11-C8-C9=120.55               
C10-C9-C8=120.57               H27-C9-C8=119.76               H27-C9-C10=119.67              C9-C10-C5=120.98               
H28-C10-C5=119.64              H28-C10-C9=119.38              

 selected dihedral angles (degree)
 ---------------------------------
C3-C2-C1-H16= 60.59           C3-C2-C1-H17=181.08           C3-C2-C1-H18=300.84           C4-C2-C1-H16=296.12           
C4-C2-C1-H17= 56.62           C4-C2-C1-H18=176.38           H19-C2-C1-H16=178.88          H19-C2-C1-H17=299.37          
H19-C2-C1-H18= 59.13          H20-C3-C2-C1=299.24           H20-C3-C2-C4= 63.74           H20-C3-C2-H19=180.96          
H21-C3-C2-C1= 58.99           H21-C3-C2-C4=183.48           H21-C3-C2-H19=300.70          H22-C3-C2-C1=178.76           
H22-C3-C2-C4=303.26           H22-C3-C2-H19= 60.48          C5-C4-C2-C1= 62.15            C5-C4-C2-C3=298.36            
C5-C4-C2-H19=180.26           H23-C4-C2-C1=300.57           H23-C4-C2-C3=176.78           H23-C4-C2-H19= 58.68          
H24-C4-C2-C1=183.68           H24-C4-C2-C3= 59.88           H24-C4-C2-H19=301.79          C6-C5-C4-C2=270.92            
C6-C5-C4-H23= 31.92           C6-C5-C4-H24=149.97           C10-C5-C4-C2= 90.36           C10-C5-C4-H23=211.35          
C10-C5-C4-H24=329.41          C7-C6-C5-C4=179.01            C7-C6-C5-C10=359.56           H25-C6-C5-C4=358.63           
H25-C6-C5-C10=179.18          C8-C7-C6-C5=  0.28            C8-C7-C6-H25=180.66           H26-C7-C6-C5=180.79           
H26-C7-C6-H25=  1.18          C9-C8-C7-C6=359.82            C9-C8-C7-H26=179.31           C11-C8-C7-C6=178.67           
C11-C8-C7-H26=358.15          C10-C9-C8-C7=  0.25           C10-C9-C8-C11=181.40          H27-C9-C8-C7=179.86           
H27-C9-C8-C11=  1.02          C9-C10-C5-C4=181.06           C9-C10-C5-C6=  0.51           H28-C10-C5-C4=  1.44          
H28-C10-C5-C6=180.90          C5-C10-C9-C8=359.57           C5-C10-C9-H27=179.96          H28-C10-C9-C8=179.19          
H28-C10-C9-H27=359.58         
           -------------------------------------------------
          |                Final Singlepoint                |
           -------------------------------------------------

          ...................................................
          :                      SETUP                      :
          :.................................................:
          :  # basis functions                  78          :
          :  # atomic orbitals                  78          :
          :  # shells                           48          :
          :  # electrons                        82          :
          :  max. iterations                   250          :
          :  Hamiltonian                  GFN2-xTB          :
          :  restarted?                      false          :
          :  GBSA solvation                  false          :
          :  PC potential                    false          :
          :  electronic temp.          300.0000000     K    :
          :  accuracy                    1.0000000          :
          :  -> integral cutoff          0.2500000E+02      :
          :  -> integral neglect         0.1000000E-07      :
          :  -> SCF convergence          0.1000000E-05 Eh   :
          :  -> wf. convergence          0.1000000E-03 e    :
          :  Broyden damping             0.4000000          :
          ...................................................

 iter      E             dE          RMSdq      gap      omega  full diag
   1    -45.8365379 -0.458365E+02  0.131E-04    4.09       0.0  T
   2    -45.8365379 -0.106077E-09  0.815E-05    4.09     213.7  T
   3    -45.8365379 -0.346745E-10  0.524E-05    4.09     332.3  T

   *** convergence criteria satisfied after 3 iterations ***

         #    Occupation            Energy/Eh            Energy/eV
      -------------------------------------------------------------
         1        2.0000           -0.7446478             -20.2629
       ...           ...                  ...                  ...
        35        2.0000           -0.4365951             -11.8804
        36        2.0000           -0.4320275             -11.7561
        37        2.0000           -0.4231527             -11.5146
        38        2.0000           -0.4154271             -11.3043
        39        2.0000           -0.4099470             -11.1552
        40        2.0000           -0.4013023             -10.9200
        41        2.0000           -0.3877374             -10.5509 (HOMO)
        42                         -0.2373063              -6.4574 (LUMO)
        43                         -0.2198743              -5.9831
        44                         -0.2152126              -5.8562
        45                         -0.0939237              -2.5558
        46                          0.0480553               1.3077
       ...                                ...                  ...
        78                          0.6584281              17.9167
      -------------------------------------------------------------
                  HL-Gap            0.1504312 Eh            4.0934 eV
             Fermi-level           -0.3125219 Eh           -8.5042 eV

 SCC (total)                   0 d,  0 h,  0 min,  0.007 sec
 SCC setup                      ...        0 min,  0.000 sec (  1.415%)
 Dispersion                     ...        0 min,  0.000 sec (  1.616%)
 classical contributions        ...        0 min,  0.000 sec (  0.660%)
 integral evaluation            ...        0 min,  0.001 sec ( 10.438%)
 iterations                     ...        0 min,  0.003 sec ( 41.094%)
 molecular gradient             ...        0 min,  0.003 sec ( 43.568%)
 printout                       ...        0 min,  0.000 sec (  1.092%)

         :::::::::::::::::::::::::::::::::::::::::::::::::::::
         ::                     SUMMARY                     ::
         :::::::::::::::::::::::::::::::::::::::::::::::::::::
         :: total energy             -45.171145802114 Eh    ::
         :: gradient norm              0.000414635912 Eh/a0 ::
         :: HOMO-LUMO gap              4.093440491983 eV    ::
         ::.................................................::
         :: SCC energy               -45.836537928173 Eh    ::
         :: -> isotropic ES            0.052051528730 Eh    ::
         :: -> anisotropic ES          0.006357846384 Eh    ::
         :: -> anisotropic XC          0.018428883190 Eh    ::
         :: -> dispersion             -0.030173707665 Eh    ::
         :: repulsion energy           0.665108613172 Eh    ::
         :: add. restraining           0.000000000000 Eh    ::
         :: total charge              -0.000000000000 e     ::
         :::::::::::::::::::::::::::::::::::::::::::::::::::::

           -------------------------------------------------
          |                Property Printout                |
           -------------------------------------------------

    * Orbital Energies and Occupations

         #    Occupation            Energy/Eh            Energy/eV
      -------------------------------------------------------------
         1        2.0000           -0.7446478             -20.2629
       ...           ...                  ...                  ...
        29        2.0000           -0.4665010             -12.6941
        30        2.0000           -0.4621933             -12.5769
        31        2.0000           -0.4592189             -12.4960
        32        2.0000           -0.4523542             -12.3092
        33        2.0000           -0.4477182             -12.1830
        34        2.0000           -0.4381646             -11.9231
        35        2.0000           -0.4365951             -11.8804
        36        2.0000           -0.4320275             -11.7561
        37        2.0000           -0.4231527             -11.5146
        38        2.0000           -0.4154271             -11.3043
        39        2.0000           -0.4099470             -11.1552
        40        2.0000           -0.4013023             -10.9200
        41        2.0000           -0.3877374             -10.5509 (HOMO)
        42                         -0.2373063              -6.4574 (LUMO)
        43                         -0.2198743              -5.9831
        44                         -0.2152126              -5.8562
        45                         -0.0939237              -2.5558
        46                          0.0480553               1.3077
        47                          0.0839517               2.2844
        48                          0.0903319               2.4581
        49                          0.0939192               2.5557
        50                          0.1068949               2.9088
        51                          0.1190398               3.2392
        52                          0.1321103               3.5949
       ...                                ...                  ...
        78                          0.6584281              17.9167
      -------------------------------------------------------------
                  HL-Gap            0.1504312 Eh            4.0934 eV
             Fermi-level           -0.3125219 Eh           -8.5042 eV

     #   Z          covCN         q      C6AA      α(0)
     1   6 C        3.755    -0.106    22.574     6.775
     2   6 C        3.849    -0.005    20.638     6.462
     3   6 C        3.755    -0.106    22.571     6.774
     4   6 C        3.809    -0.067    21.786     6.644
     5   6 C        2.967     0.016    27.651     8.625
     6   6 C        2.925    -0.038    28.937     8.822
     7   6 C        2.922    -0.039    28.974     8.827
     8   6 C        2.980     0.009    27.812     8.651
     9   6 C        2.922    -0.039    28.978     8.828
    10   6 C        2.925    -0.038    28.956     8.825
    11   6 C        3.858    -0.042    21.293     6.563
    12   6 C        3.756    -0.103    22.523     6.767
    13   6 C        2.699     0.363    20.844     7.472
    14   8 O        0.856    -0.409    21.869     6.270
    15   8 O        1.659    -0.381    20.491     6.111
    16   1 H        0.925     0.039     2.467     2.456
    17   1 H        0.925     0.033     2.546     2.495
    18   1 H        0.925     0.034     2.534     2.489
    19   1 H        0.924     0.027     2.629     2.536
    20   1 H        0.925     0.038     2.473     2.459
    21   1 H        0.925     0.034     2.534     2.489
    22   1 H        0.925     0.032     2.553     2.499
    23   1 H        0.924     0.037     2.488     2.467
    24   1 H        0.924     0.036     2.497     2.471
    25   1 H        0.926     0.035     2.513     2.479
    26   1 H        0.926     0.045     2.386     2.416
    27   1 H        0.926     0.030     2.585     2.514
    28   1 H        0.926     0.034     2.535     2.490
    29   1 H        0.924     0.058     2.226     2.333
    30   1 H        0.925     0.042     2.416     2.431
    31   1 H        0.925     0.046     2.376     2.411
    32   1 H        0.925     0.060     2.198     2.318
    33   1 H        0.804     0.327     0.645     1.261

 Mol. C6AA /au·bohr⁶  :      10237.902441
 Mol. C8AA /au·bohr⁸  :     234144.590243
 Mol. α(0) /au        :        155.427669


Wiberg/Mayer (AO) data.
largest (>0.10) Wiberg bond orders for each atom

 ---------------------------------------------------------------------------
     #   Z sym  total        # sym  WBO       # sym  WBO       # sym  WBO
 ---------------------------------------------------------------------------
     1   6 C    3.997 --     2 C    1.011    17 H    0.986    18 H    0.986
                            16 H    0.984
     2   6 C    3.995 --     1 C    1.011     3 C    1.011     4 C    0.974
                            19 H    0.969
     3   6 C    3.997 --     2 C    1.011    22 H    0.987    21 H    0.986
                            20 H    0.985
     4   6 C    3.997 --     5 C    1.016     2 C    0.974    24 H    0.972
                            23 H    0.972
     5   6 C    3.987 --    10 C    1.410     6 C    1.405     4 C    1.016
                             8 C    0.105
     6   6 C    3.992 --     7 C    1.452     5 C    1.405    25 H    0.968
                             9 C    0.108
     7   6 C    3.991 --     6 C    1.452     8 C    1.406    26 H    0.967
                            10 C    0.109
     8   6 C    3.985 --     9 C    1.412     7 C    1.406    11 C    0.967
                             5 C    0.105
     9   6 C    3.991 --    10 C    1.445     8 C    1.412    27 H    0.968
                             6 C    0.108
    10   6 C    3.991 --     9 C    1.445     5 C    1.410    28 H    0.968
                             7 C    0.109
    11   6 C    3.992 --    12 C    0.990     8 C    0.967    29 H    0.962
                            13 C    0.955
    12   6 C    3.992 --    11 C    0.990    30 H    0.986    31 H    0.986
                            32 H    0.983
    13   6 C    3.907 --    14 O    1.766    15 O    1.127    11 C    0.955
    14   8 O    2.041 --    13 C    1.766    15 O    0.170
    15   8 O    2.194 --    13 C    1.127    33 H    0.867    14 O    0.170
    16   1 H    0.999 --     1 C    0.984
    17   1 H    0.999 --     1 C    0.986
    18   1 H    0.999 --     1 C    0.986
    19   1 H    0.999 --     2 C    0.969
    20   1 H    0.999 --     3 C    0.985
    21   1 H    0.999 --     3 C    0.986
    22   1 H    0.999 --     3 C    0.987
    23   1 H    0.998 --     4 C    0.972
    24   1 H    0.998 --     4 C    0.972
    25   1 H    0.998 --     6 C    0.968
    26   1 H    0.998 --     7 C    0.967
    27   1 H    0.999 --     9 C    0.968
    28   1 H    0.998 --    10 C    0.968
    29   1 H    0.996 --    11 C    0.962
    30   1 H    0.997 --    12 C    0.986
    31   1 H    0.998 --    12 C    0.986
    32   1 H    0.996 --    12 C    0.983
    33   1 H    0.893 --    15 O    0.867
 ---------------------------------------------------------------------------

Topologies differ in total number of bonds
Writing topology from bond orders to xtbtopo.mol

molecular dipole:
                 x           y           z       tot (Debye)
 q only:       -0.312       0.523       0.360
   full:       -0.257       0.624       0.220       1.805
molecular quadrupole (traceless):
                xx          xy          yy          xz          yz          zz
 q only:        1.650       4.961      -3.131       2.461      -5.418       1.481
  q+dip:        3.624       6.809      -4.402       0.059      -3.408       0.778
   full:        3.117       6.199      -5.294       0.911      -5.297       2.176

           -------------------------------------------------
          |                Geometry Summary                 |
           -------------------------------------------------

      molecular mass/u    :      206.2813100
   center of mass at/Å    :        0.5194753      -0.0877602      -0.2985646
  moments of inertia/u·Å² :        0.4266733E+03   0.1702987E+04   0.1766564E+04
rotational constants/cm⁻¹ :        0.3950946E-01   0.9898864E-02   0.9542608E-02

 * 29 selected distances

     #   Z          #   Z                                           value/Å
     1   6 C        2   6 C                                       1.5257328
     2   6 C        3   6 C                                       1.5258427
     5   6 C        6   6 C                                       1.3902190
     6   6 C        7   6 C                                       1.3821991
     7   6 C        8   6 C                                       1.3891186
     8   6 C        9   6 C                                       1.3874497
     5   6 C       10   6 C                                       1.3892711
     9   6 C       10   6 C                                       1.3831339
    11   6 C       12   6 C                                       1.5292714 (max)
    13   6 C       14   8 O                                       1.2011613
    13   6 C       15   8 O                                       1.3401408
     1   6 C       16   1 H                                       1.0875622
     1   6 C       17   1 H                                       1.0878723
     1   6 C       18   1 H                                       1.0878768
     2   6 C       19   1 H                                       1.0967673
     3   6 C       20   1 H                                       1.0876450
     3   6 C       21   1 H                                       1.0878799
     3   6 C       22   1 H                                       1.0878834
     4   6 C       23   1 H                                       1.0924106
     4   6 C       24   1 H                                       1.0924629
     6   6 C       25   1 H                                       1.0803075
     7   6 C       26   1 H                                       1.0797052
     9   6 C       27   1 H                                       1.0808102
    10   6 C       28   1 H                                       1.0804599
    11   6 C       29   1 H                                       1.0931831
    12   6 C       30   1 H                                       1.0875958
    12   6 C       31   1 H                                       1.0870979
    12   6 C       32   1 H                                       1.0863380
    15   8 O       33   1 H                                       0.9706878 (min)

 * 4 distinct bonds (by element types)

   Z      Z             #   av. dist./Å        max./Å        min./Å
   1 H    6 C          17     1.0872858     1.0967673     1.0797052
   6 C    6 C           9     1.4335820     1.5292714     1.3821991
   1 H    8 O           1     0.9706878     0.9706878     0.9706878
   6 C    8 O           2     1.2706511     1.3401408     1.2011613


optimized geometry written to: xtbopt.xyz


           -------------------------------------------------
          | TOTAL ENERGY              -45.171145802114 Eh   |
          | GRADIENT NORM               0.000414635912 Eh/α |
          | HOMO-LUMO GAP               4.093440491983 eV   |
           -------------------------------------------------
########################################################################
[WARNING] Runtime exception occurred
-2- restart_readRestart: Dimension missmatch in restart file.
-1- restart_readRestart: Number of electron missmatch in restart file.
########################################################################

------------------------------------------------------------------------
 * finished run on 2024/09/14 at 13:17:06.880     
------------------------------------------------------------------------
 total:
 * wall-time:     0 d,  0 h,  0 min,  0.449 sec
 *  cpu-time:     0 d,  0 h,  0 min,  2.989 sec
 * ratio c/w:     6.664 speedup
 SCF:
 * wall-time:     0 d,  0 h,  0 min,  0.041 sec
 *  cpu-time:     0 d,  0 h,  0 min,  0.247 sec
 * ratio c/w:     5.947 speedup
 ANC optimizer:
 * wall-time:     0 d,  0 h,  0 min,  0.149 sec
 *  cpu-time:     0 d,  0 h,  0 min,  1.139 sec
 * ratio c/w:     7.632 speedup

