      -----------------------------------------------------------      
     |                   =====================                   |     
     |                           x T B                           |     
     |                   =====================                   |     
     |                         S. Grimme                         |     
     |          Mulliken Center for Theoretical Chemistry        |     
     |                    University of Bonn                     |     
      -----------------------------------------------------------      

   * xtb version 6.6.0 (conda-forge) compiled by 'runner@Mac-1676020848589.local' on 2023-02-10

   xtb is free software: you can redistribute it and/or modify it under
   the terms of the GNU Lesser General Public License as published by
   the Free Software Foundation, either version 3 of the License, or
   (at your option) any later version.
   
   xtb is distributed in the hope that it will be useful,
   but WITHOUT ANY WARRANTY; without even the implied warranty of
   MERCHANTABILITY or FITNESS FOR A PARTICULAR PURPOSE.  See the
   GNU Lesser General Public License for more details.
   
   Cite this work as:
   * C. Bannwarth, E. Caldeweyher, S. Ehlert, A. Hansen, P. Pracht,
     J. Seibert, S. Spicher, S. Grimme, WIREs Comput. Mol. Sci., 2020, 11,
     e01493. DOI: 10.1002/wcms.1493
   
   for GFN2-xTB:
   * C. Bannwarth, S. Ehlert and S. Grimme., J. Chem. Theory Comput., 2019,
     15, 1652-1671. DOI: 10.1021/acs.jctc.8b01176
   for GFN1-xTB:
   * S. Grimme, C. Bannwarth, P. Shushkov, J. Chem. Theory Comput., 2017,
     13, 1989-2009. DOI: 10.1021/acs.jctc.7b00118
   for GFN0-xTB:
   * P. Pracht, E. Caldeweyher, S. Ehlert, S. Grimme, ChemRxiv, 2019, preprint.
     DOI: 10.26434/chemrxiv.8326202.v1
   for GFN-FF:
   * S. Spicher and S. Grimme, Angew. Chem. Int. Ed., 2020, 59, 15665-15673.
     DOI: 10.1002/anie.202004239
   
   for ALPB and GBSA implicit solvation:
   * S. Ehlert, M. Stahn, S. Spicher, S. Grimme, J. Chem. Theory Comput.,
     2021, 17, 4250-4261. DOI: 10.1021/acs.jctc.1c00471
   
   for DFT-D4:
   * E. Caldeweyher, C. Bannwarth and S. Grimme, J. Chem. Phys., 2017,
     147, 034112. DOI: 10.1063/1.4993215
   * E. Caldeweyher, S. Ehlert, A. Hansen, H. Neugebauer, S. Spicher,
     C. Bannwarth and S. Grimme, J. Chem. Phys., 2019, 150, 154122.
     DOI: 10.1063/1.5090222
   * E. Caldeweyher, J.-M. Mewes, S. Ehlert and S. Grimme, Phys. Chem. Chem. Phys.
     2020, 22, 8499-8512. DOI: 10.1039/D0CP00502A
   
   for sTDA-xTB:
   * S. Grimme and C. Bannwarth, J. Chem. Phys., 2016, 145, 054103.
     DOI: 10.1063/1.4959605
   
   in the mass-spec context:
   * V. Asgeirsson, C. Bauer and S. Grimme, Chem. Sci., 2017, 8, 4879.
     DOI: 10.1039/c7sc00601b
   * J. Koopman and S. Grimme, ACS Omega 2019, 4, 12, 15120-15133.
     DOI: 10.1021/acsomega.9b02011
   
   for metadynamics refer to:
   * S. Grimme, J. Chem. Theory Comput., 2019, 155, 2847-2862
     DOI: 10.1021/acs.jctc.9b00143
   
   for SPH calculations refer to:
   * S. Spicher and S. Grimme, J. Chem. Theory Comput., 2021, 17, 1701-1714
     DOI: 10.1021/acs.jctc.0c01306
   
   with help from (in alphabetical order)
   P. Atkinson, C. Bannwarth, F. Bohle, G. Brandenburg, E. Caldeweyher
   M. Checinski, S. Dohm, S. Ehlert, S. Ehrlich, I. Gerasimov, C. Hölzer
   A. Katbashev, J. Koopman, C. Lavigne, S. Lehtola, F. März, M. Müller,
   F. Musil, H. Neugebauer, J. Pisarek, C. Plett, P. Pracht, F. Pultar,
   J. Seibert, P. Shushkov, S. Spicher, M. Stahn, M. Steiner, T. Strunk,
   J. Stückrath, T. Rose, and J. Unsleber
   
 * started run on 2024/09/10 at 11:25:31.433     

           -------------------------------------------------
          |                Calculation Setup                |
           -------------------------------------------------

          program call               : xtb caffeine.xyz --opt --gfn2
          coordinate file            : caffeine.xyz
          omp threads                :                     8

   ID    Z sym.   atoms
    1    6 C      1, 3, 5-7, 10, 13, 14
    2    7 N      2, 4, 9, 12
    3    8 O      8, 11
    4    1 H      15-24

           -------------------------------------------------
          |                 G F N 2 - x T B                 |
           -------------------------------------------------

        Reference                      10.1021/acs.jctc.8b01176
      * Hamiltonian:
        H0-scaling (s, p, d)           1.850000    2.230000    2.230000
        zeta-weighting                 0.500000
      * Dispersion:
        s8                             2.700000
        a1                             0.520000
        a2                             5.000000
        s9                             5.000000
      * Repulsion:
        kExp                           1.500000    1.000000
        rExp                           1.000000
      * Coulomb:
        alpha                          2.000000
        third order                    shell-resolved
        anisotropic                    true
        a3                             3.000000
        a5                             4.000000
        cn-shift                       1.200000
        cn-exp                         4.000000
        max-rad                        5.000000

q/qsh data taken from xtbrestart
CAMM data taken from xtbrestart

          ...................................................
          :                      SETUP                      :
          :.................................................:
          :  # basis functions                  66          :
          :  # atomic orbitals                  66          :
          :  # shells                           38          :
          :  # electrons                        74          :
          :  max. iterations                   250          :
          :  Hamiltonian                  GFN2-xTB          :
          :  restarted?                       true          :
          :  GBSA solvation                  false          :
          :  PC potential                    false          :
          :  electronic temp.          300.0000000     K    :
          :  accuracy                    1.0000000          :
          :  -> integral cutoff          0.2500000E+02      :
          :  -> integral neglect         0.1000000E-07      :
          :  -> SCF convergence          0.1000000E-05 Eh   :
          :  -> wf. convergence          0.1000000E-03 e    :
          :  Broyden damping             0.4000000          :
          ...................................................

 iter      E             dE          RMSdq      gap      omega  full diag
   1    -42.6003493 -0.426003E+02  0.309E+00    3.38       0.0  T
   2    -42.6056174 -0.526814E-02  0.188E+00    3.33       1.0  T
   3    -42.6008676  0.474981E-02  0.556E-01    3.35       1.0  T
   4    -42.6075058 -0.663820E-02  0.149E-01    3.33       1.0  T
   5    -42.6076233 -0.117484E-03  0.827E-02    3.32       1.0  T
   6    -42.6076485 -0.252085E-04  0.224E-02    3.32       1.0  T
   7    -42.6076524 -0.393645E-05  0.951E-03    3.32       2.1  T
   8    -42.6076526 -0.211421E-06  0.290E-03    3.32       7.0  T
   9    -42.6076527 -0.352102E-07  0.147E-03    3.32      13.9  T
  10    -42.6076527 -0.496416E-08  0.396E-04    3.32      51.5  T
  11    -42.6076527 -0.148533E-08  0.139E-04    3.32     146.4  T

   *** convergence criteria satisfied after 11 iterations ***

         #    Occupation            Energy/Eh            Energy/eV
      -------------------------------------------------------------
         1        2.0000           -0.7262913             -19.7634
       ...           ...                  ...                  ...
        31        2.0000           -0.4630370             -12.5999
        32        2.0000           -0.4358305             -11.8596
        33        2.0000           -0.4218771             -11.4799
        34        2.0000           -0.4182190             -11.3803
        35        2.0000           -0.4100684             -11.1585
        36        2.0000           -0.3983899             -10.8407
        37        2.0000           -0.3910403             -10.6407 (HOMO)
        38                         -0.2689783              -7.3193 (LUMO)
        39                         -0.2277943              -6.1986
        40                         -0.2152053              -5.8560
        41                         -0.1157862              -3.1507
        42                         -0.0675931              -1.8393
       ...                                ...                  ...
        66                          0.6651797              18.1005
      -------------------------------------------------------------
                  HL-Gap            0.1220620 Eh            3.3215 eV
             Fermi-level           -0.3300093 Eh           -8.9800 eV

 SCC (total)                   0 d,  0 h,  0 min,  0.043 sec
 SCC setup                      ...        0 min,  0.001 sec (  2.513%)
 Dispersion                     ...        0 min,  0.001 sec (  1.486%)
 classical contributions        ...        0 min,  0.000 sec (  0.753%)
 integral evaluation            ...        0 min,  0.002 sec (  4.424%)
 iterations                     ...        0 min,  0.036 sec ( 84.256%)
 molecular gradient             ...        0 min,  0.002 sec (  5.385%)
 printout                       ...        0 min,  0.000 sec (  1.141%)

         :::::::::::::::::::::::::::::::::::::::::::::::::::::
         ::                     SUMMARY                     ::
         :::::::::::::::::::::::::::::::::::::::::::::::::::::
         :: total energy             -42.131895961874 Eh    ::
         :: gradient norm              0.161490194443 Eh/a0 ::
         :: HOMO-LUMO gap              3.321475380152 eV    ::
         ::.................................................::
         :: SCC energy               -42.607652682841 Eh    ::
         :: -> isotropic ES            0.093445217341 Eh    ::
         :: -> anisotropic ES          0.003334922822 Eh    ::
         :: -> anisotropic XC          0.014294500494 Eh    ::
         :: -> dispersion             -0.023185585273 Eh    ::
         :: repulsion energy           0.475666056459 Eh    ::
         :: add. restraining           0.000000000000 Eh    ::
         :: total charge              -0.000000000000 e     ::
         :::::::::::::::::::::::::::::::::::::::::::::::::::::

      ----------------------------------------------------------- 
     |                   =====================                   |
     |                        A N C O P T                        |
     |                   =====================                   |
     |               Approximate Normal Coordinate               |
     |                Rational Function Optimizer                |
      ----------------------------------------------------------- 

          ...................................................
          :                      SETUP                      :
          :.................................................:
          :   optimization level            normal          :
          :   max. optcycles                   200          :
          :   ANC micro-cycles                  20          :
          :   degrees of freedom                66          :
          :.................................................:
          :   RF solver                   davidson          :
          :   write xtbopt.log                true          :
          :   linear?                        false          :
          :   energy convergence         0.5000000E-05 Eh   :
          :   grad. convergence          0.1000000E-02 Eh/α :
          :   maxmium RF displ.          1.0000000          :
          :   Hlow (freq-cutoff)         0.1000000E-01      :
          :   Hmax (freq-cutoff)         5.0000000          :
          :   S6 in model hess.         20.0000000          :
          ...................................................

generating ANC from model Hessian ...
Using Lindh-Hessian (1995)
 Shifting diagonal of input Hessian by    6.8468065703463738E-003
 Lowest  eigenvalues of input Hessian
    0.000000    0.000000    0.000000    0.000000    0.000000    0.000000
    0.010000    0.011180    0.012345    0.015411    0.015607    0.017496
    0.018468    0.019226    0.026283    0.029469    0.040219    0.046533
 Highest eigenvalues
    2.057920    2.074066    2.092788    2.185862    2.434224    2.458975


........................................................................
.............................. CYCLE    1 ..............................
........................................................................

 iter      E             dE          RMSdq      gap      omega  full diag
   1    -42.6076527 -0.426077E+02  0.743E-05    3.32       0.0  T
   2    -42.6076527 -0.169180E-10  0.416E-05    3.32     491.1  T
   3    -42.6076527 -0.321876E-11  0.270E-05    3.32     756.0  T
     SCC iter.                  ...        0 min,  0.002 sec
     gradient                   ...        0 min,  0.002 sec
 * total energy  :   -42.1318960 Eh     change       -0.1148024E-09 Eh
   gradient norm :     0.1614917 Eh/α   predicted     0.0000000E+00 (-100.00%)
   displ. norm   :     0.3052462 α      lambda       -0.2465014E-01
   maximum displ.:     0.1862542 α      in ANC's #13, #21, #14, ...

........................................................................
.............................. CYCLE    2 ..............................
........................................................................

 iter      E             dE          RMSdq      gap      omega  full diag
   1    -42.6468110 -0.426468E+02  0.347E-01    3.40       0.0  T
   2    -42.6478275 -0.101653E-02  0.204E-01    3.37       1.0  T
   3    -42.6479480 -0.120528E-03  0.105E-01    3.39       1.0  T
   4    -42.6479503 -0.229177E-05  0.421E-02    3.38       1.0  T
   5    -42.6479768 -0.265036E-04  0.901E-03    3.38       2.3  T
   6    -42.6479772 -0.389318E-06  0.446E-03    3.38       4.6  T
   7    -42.6479773 -0.678786E-07  0.173E-03    3.38      11.8  T
   8    -42.6479773 -0.270456E-07  0.512E-04    3.38      39.9  T
   9    -42.6479773 -0.187004E-08  0.210E-04    3.38      97.1  T
     SCC iter.                  ...        0 min,  0.007 sec
     gradient                   ...        0 min,  0.002 sec
 * total energy  :   -42.1491329 Eh     change       -0.1723691E-01 Eh
   gradient norm :     0.0689962 Eh/α   predicted    -0.1348352E-01 ( -21.78%)
   displ. norm   :     0.2342934 α      lambda       -0.7239270E-02
   maximum displ.:     0.1396375 α      in ANC's #13, #14, #21, ...

........................................................................
.............................. CYCLE    3 ..............................
........................................................................

 iter      E             dE          RMSdq      gap      omega  full diag
   1    -42.6678166 -0.426678E+02  0.276E-01    3.45       0.0  T
   2    -42.6683736 -0.557073E-03  0.151E-01    3.42       1.0  T
   3    -42.6684396 -0.659719E-04  0.788E-02    3.43       1.0  T
   4    -42.6684465 -0.692435E-05  0.321E-02    3.42       1.0  T
   5    -42.6684622 -0.156602E-04  0.678E-03    3.42       3.0  T
   6    -42.6684624 -0.223052E-06  0.337E-03    3.42       6.1  T
   7    -42.6684625 -0.495373E-07  0.121E-03    3.42      16.9  T
   8    -42.6684625 -0.134571E-07  0.361E-04    3.42      56.6  T
   9    -42.6684625 -0.852516E-09  0.151E-04    3.42     134.8  T
     SCC iter.                  ...        0 min,  0.005 sec
     gradient                   ...        0 min,  0.002 sec
 * total energy  :   -42.1531254 Eh     change       -0.3992526E-02 Eh
   gradient norm :     0.0164241 Eh/α   predicted    -0.3818755E-02 (  -4.35%)
   displ. norm   :     0.0955503 α      lambda       -0.5679741E-03
   maximum displ.:     0.0609677 α      in ANC's #5, #13, #10, ...

........................................................................
.............................. CYCLE    4 ..............................
........................................................................

 iter      E             dE          RMSdq      gap      omega  full diag
   1    -42.6669403 -0.426669E+02  0.718E-02    3.43       0.0  T
   2    -42.6669550 -0.146993E-04  0.413E-02    3.43       1.0  T
   3    -42.6669538  0.119430E-05  0.208E-02    3.43       1.0  T
   4    -42.6669576 -0.380280E-05  0.593E-03    3.43       3.4  T
   5    -42.6669582 -0.586413E-06  0.146E-03    3.43      14.0  T
   6    -42.6669582 -0.525836E-08  0.807E-04    3.43      25.3  T
   7    -42.6669582 -0.176804E-08  0.179E-04    3.43     114.0  T
     SCC iter.                  ...        0 min,  0.004 sec
     gradient                   ...        0 min,  0.002 sec
 * total energy  :   -42.1535145 Eh     change       -0.3891130E-03 Eh
   gradient norm :     0.0080518 Eh/α   predicted    -0.2865964E-03 ( -26.35%)
   displ. norm   :     0.0784499 α      lambda       -0.1984622E-03
   maximum displ.:     0.0600432 α      in ANC's #5, #4, #10, ...

........................................................................
.............................. CYCLE    5 ..............................
........................................................................

 iter      E             dE          RMSdq      gap      omega  full diag
   1    -42.6659688 -0.426660E+02  0.429E-02    3.43       0.0  T
   2    -42.6659756 -0.686563E-05  0.246E-02    3.43       1.0  T
   3    -42.6659756  0.951577E-07  0.122E-02    3.43       1.7  T
   4    -42.6659763 -0.713135E-06  0.393E-03    3.43       5.2  T
   5    -42.6659766 -0.289760E-06  0.896E-04    3.43      22.8  T
   6    -42.6659766 -0.356973E-08  0.485E-04    3.43      42.1  T
     SCC iter.                  ...        0 min,  0.003 sec
     gradient                   ...        0 min,  0.002 sec
 * total energy  :   -42.1536270 Eh     change       -0.1124638E-03 Eh
   gradient norm :     0.0029653 Eh/α   predicted    -0.9984527E-04 ( -11.22%)
   displ. norm   :     0.0258817 α      lambda       -0.1826308E-04
   maximum displ.:     0.0183982 α      in ANC's #5, #8, #4, ...

........................................................................
.............................. CYCLE    6 ..............................
........................................................................

 iter      E             dE          RMSdq      gap      omega  full diag
   1    -42.6660916 -0.426661E+02  0.103E-02    3.43       0.0  T
   2    -42.6660919 -0.249011E-06  0.599E-03    3.43       3.4  T
   3    -42.6660919 -0.709761E-10  0.194E-03    3.43      10.5  T
   4    -42.6660919 -0.123991E-07  0.530E-04    3.43      38.5  T
   5    -42.6660919 -0.470466E-08  0.209E-04    3.43      97.6  T
     SCC iter.                  ...        0 min,  0.002 sec
     gradient                   ...        0 min,  0.002 sec
 * total energy  :   -42.1536405 Eh     change       -0.1348255E-04 Eh
   gradient norm :     0.0017624 Eh/α   predicted    -0.9141271E-05 ( -32.20%)
   displ. norm   :     0.0555868 α      lambda       -0.1480652E-04
   maximum displ.:     0.0323261 α      in ANC's #8, #5, #4, ...

........................................................................
.............................. CYCLE    7 ..............................
........................................................................

 iter      E             dE          RMSdq      gap      omega  full diag
   1    -42.6664512 -0.426665E+02  0.199E-02    3.43       0.0  T
   2    -42.6664515 -0.309349E-06  0.117E-02    3.43       1.7  T
   3    -42.6664514  0.101290E-06  0.298E-03    3.43       6.8  T
   4    -42.6664516 -0.146577E-06  0.960E-04    3.43      21.3  T
   5    -42.6664516 -0.145485E-07  0.382E-04    3.43      53.4  T
     SCC iter.                  ...        0 min,  0.005 sec
     gradient                   ...        0 min,  0.002 sec
 * total energy  :   -42.1536508 Eh     change       -0.1037941E-04 Eh
   gradient norm :     0.0016289 Eh/α   predicted    -0.7414288E-05 ( -28.57%)
   displ. norm   :     0.0195966 α      lambda       -0.3908404E-05
   maximum displ.:     0.0148224 α      in ANC's #8, #4, #3, ...

........................................................................
.............................. CYCLE    8 ..............................
........................................................................

 iter      E             dE          RMSdq      gap      omega  full diag
   1    -42.6664480 -0.426664E+02  0.597E-03    3.43       0.0  T
   2    -42.6664480 -0.426880E-07  0.353E-03    3.43       5.8  T
   3    -42.6664480  0.960448E-08  0.106E-03    3.43      19.3  T
   4    -42.6664480 -0.148847E-07  0.308E-04    3.43      66.2  T
   5    -42.6664480 -0.149983E-08  0.109E-04    3.43     187.3  T
     SCC iter.                  ...        0 min,  0.003 sec
     gradient                   ...        0 min,  0.002 sec
 * total energy  :   -42.1536558 Eh     change       -0.4995497E-05 Eh
   gradient norm :     0.0010322 Eh/α   predicted    -0.1960364E-05 ( -60.76%)
   displ. norm   :     0.0998387 α      lambda       -0.1290989E-04
   maximum displ.:     0.0751367 α      in ANC's #8, #4, #3, ...

........................................................................
.............................. CYCLE    9 ..............................
........................................................................

 iter      E             dE          RMSdq      gap      omega  full diag
   1    -42.6660718 -0.426661E+02  0.253E-02    3.42       0.0  T
   2    -42.6660720 -0.250741E-06  0.150E-02    3.42       1.4  T
   3    -42.6660720  0.698420E-08  0.203E-03    3.42      10.1  T
   4    -42.6660721 -0.459746E-07  0.720E-04    3.42      28.4  T
   5    -42.6660721 -0.427556E-08  0.386E-04    3.42      52.9  T
     SCC iter.                  ...        0 min,  0.003 sec
     gradient                   ...        0 min,  0.002 sec
 * total energy  :   -42.1536696 Eh     change       -0.1376840E-04 Eh
   gradient norm :     0.0017343 Eh/α   predicted    -0.6488070E-05 ( -52.88%)
   displ. norm   :     0.0902560 α      lambda       -0.8997717E-05
   maximum displ.:     0.0645269 α      in ANC's #8, #3, #4, ...

........................................................................
.............................. CYCLE   10 ..............................
........................................................................

 iter      E             dE          RMSdq      gap      omega  full diag
   1    -42.6660064 -0.426660E+02  0.206E-02    3.42       0.0  T
   2    -42.6660064 -0.751124E-07  0.122E-02    3.42       1.7  T
   3    -42.6660064  0.501988E-08  0.129E-03    3.42      15.8  T
   4    -42.6660064 -0.249741E-07  0.520E-04    3.42      39.3  T
   5    -42.6660065 -0.178547E-08  0.269E-04    3.42      75.9  T
     SCC iter.                  ...        0 min,  0.003 sec
     gradient                   ...        0 min,  0.002 sec
 * total energy  :   -42.1536813 Eh     change       -0.1174138E-04 Eh
   gradient norm :     0.0023291 Eh/α   predicted    -0.4516828E-05 ( -61.53%)
   displ. norm   :     0.1640939 α      lambda       -0.2519612E-04
   maximum displ.:     0.1142256 α      in ANC's #8, #3, #4, ...

........................................................................
.............................. CYCLE   11 ..............................
........................................................................

 iter      E             dE          RMSdq      gap      omega  full diag
   1    -42.6654771 -0.426655E+02  0.357E-02    3.42       0.0  T
   2    -42.6654773 -0.193858E-06  0.213E-02    3.42       1.0  T
   3    -42.6654773  0.191577E-07  0.213E-03    3.42       9.6  T
   4    -42.6654773 -0.707889E-07  0.911E-04    3.42      22.4  T
   5    -42.6654774 -0.729435E-08  0.426E-04    3.42      47.9  T
     SCC iter.                  ...        0 min,  0.003 sec
     gradient                   ...        0 min,  0.002 sec
 * total energy  :   -42.1536993 Eh     change       -0.1798022E-04 Eh
   gradient norm :     0.0034707 Eh/α   predicted    -0.1293856E-04 ( -28.04%)
   displ. norm   :     0.1269648 α      lambda       -0.2404025E-04
   maximum displ.:     0.0863766 α      in ANC's #8, #3, #4, ...

........................................................................
.............................. CYCLE   12 ..............................
........................................................................

 iter      E             dE          RMSdq      gap      omega  full diag
   1    -42.6654119 -0.426654E+02  0.269E-02    3.43       0.0  T
   2    -42.6654120 -0.980019E-07  0.161E-02    3.42       1.3  T
   3    -42.6654120  0.459918E-07  0.194E-03    3.43      10.5  T
   4    -42.6654121 -0.774521E-07  0.647E-04    3.43      31.5  T
   5    -42.6654121 -0.314742E-08  0.312E-04    3.43      65.4  T
     SCC iter.                  ...        0 min,  0.003 sec
     gradient                   ...        0 min,  0.002 sec
 * total energy  :   -42.1537166 Eh     change       -0.1725568E-04 Eh
   gradient norm :     0.0038613 Eh/α   predicted    -0.1221493E-04 ( -29.21%)
   displ. norm   :     0.1097521 α      lambda       -0.4940836E-04
   maximum displ.:     0.0666442 α      in ANC's #8, #3, #4, ...

........................................................................
.............................. CYCLE   13 ..............................
........................................................................

 iter      E             dE          RMSdq      gap      omega  full diag
   1    -42.6666195 -0.426666E+02  0.259E-02    3.43       0.0  T
   2    -42.6666199 -0.362058E-06  0.154E-02    3.43       1.3  T
   3    -42.6666198  0.792772E-07  0.291E-03    3.43       7.0  T
   4    -42.6666200 -0.120038E-06  0.910E-04    3.43      22.4  T
   5    -42.6666200 -0.117975E-07  0.390E-04    3.43      52.4  T
     SCC iter.                  ...        0 min,  0.004 sec
     gradient                   ...        0 min,  0.002 sec
 * total energy  :   -42.1537448 Eh     change       -0.2818581E-04 Eh
   gradient norm :     0.0026186 Eh/α   predicted    -0.2500346E-04 ( -11.29%)
   displ. norm   :     0.2898098 α      lambda       -0.5161928E-04
   maximum displ.:     0.1873303 α      in ANC's #8, #3, #4, ...

........................................................................
.............................. CYCLE   14 ..............................
........................................................................

 iter      E             dE          RMSdq      gap      omega  full diag
   1    -42.6645027 -0.426645E+02  0.619E-02    3.43       0.0  T
   2    -42.6645044 -0.168991E-05  0.367E-02    3.43       1.0  T
   3    -42.6645045 -0.653129E-07  0.464E-03    3.43       4.4  T
   4    -42.6645046 -0.123509E-06  0.169E-03    3.43      12.1  T
   5    -42.6645046 -0.226922E-07  0.917E-04    3.43      22.3  T
   6    -42.6645046 -0.481639E-08  0.251E-04    3.43      81.3  T
     SCC iter.                  ...        0 min,  0.003 sec
     gradient                   ...        0 min,  0.002 sec
 * total energy  :   -42.1537314 Eh     change        0.1336742E-04 Eh
   gradient norm :     0.0071665 Eh/α   predicted    -0.2798250E-04 (-309.33%)
   displ. norm   :     0.1671450 α      lambda       -0.1246183E-03
   maximum displ.:     0.1143224 α      in ANC's #8, #3, #4, ...

........................................................................
.............................. CYCLE   15 ..............................
........................................................................

 iter      E             dE          RMSdq      gap      omega  full diag
   1    -42.6666119 -0.426666E+02  0.403E-02    3.43       0.0  T
   2    -42.6666131 -0.112806E-05  0.236E-02    3.43       1.0  T
   3    -42.6666130  0.254370E-07  0.446E-03    3.43       4.6  T
   4    -42.6666132 -0.120110E-06  0.161E-03    3.43      12.7  T
   5    -42.6666132 -0.356916E-07  0.717E-04    3.43      28.5  T
   6    -42.6666132 -0.130693E-08  0.187E-04    3.43     109.0  T
     SCC iter.                  ...        0 min,  0.003 sec
     gradient                   ...        0 min,  0.002 sec
 * total energy  :   -42.1537743 Eh     change       -0.4293933E-04 Eh
   gradient norm :     0.0016791 Eh/α   predicted    -0.6405032E-04 (  49.16%)
   displ. norm   :     0.1007384 α      lambda       -0.1472326E-04
   maximum displ.:     0.0635230 α      in ANC's #3, #8, #4, ...

........................................................................
.............................. CYCLE   16 ..............................
........................................................................

 iter      E             dE          RMSdq      gap      omega  full diag
   1    -42.6664591 -0.426665E+02  0.209E-02    3.43       0.0  T
   2    -42.6664592 -0.771647E-07  0.125E-02    3.43       1.6  T
   3    -42.6664592  0.138825E-07  0.141E-03    3.43      14.5  T
   4    -42.6664592 -0.317152E-07  0.508E-04    3.43      40.2  T
   5    -42.6664592 -0.173775E-08  0.236E-04    3.43      86.5  T
     SCC iter.                  ...        0 min,  0.005 sec
     gradient                   ...        0 min,  0.002 sec
 * total energy  :   -42.1537941 Eh     change       -0.1972885E-04 Eh
   gradient norm :     0.0015452 Eh/α   predicted    -0.7395182E-05 ( -62.52%)
   displ. norm   :     0.4222149 α      lambda       -0.5015139E-04
   maximum displ.:     0.2727002 α      in ANC's #3, #8, #4, ...

........................................................................
.............................. CYCLE   17 ..............................
........................................................................

 iter      E             dE          RMSdq      gap      omega  full diag
   1    -42.6627351 -0.426627E+02  0.907E-02    3.42       0.0  T
   2    -42.6627389 -0.382914E-05  0.535E-02    3.42       1.0  T
   3    -42.6627391 -0.151312E-06  0.724E-03    3.42       2.8  T
   4    -42.6627394 -0.303365E-06  0.267E-03    3.42       7.6  T
   5    -42.6627394 -0.521673E-07  0.139E-03    3.42      14.7  T
   6    -42.6627394 -0.850893E-08  0.361E-04    3.42      56.5  T
   7    -42.6627394 -0.171136E-08  0.137E-04    3.42     149.5  T
     SCC iter.                  ...        0 min,  0.005 sec
     gradient                   ...        0 min,  0.002 sec
 * total energy  :   -42.1536901 Eh     change        0.1039794E-03 Eh
   gradient norm :     0.0107471 Eh/α   predicted    -0.2706770E-04 (-126.03%)
   displ. norm   :     0.1995511 α      lambda       -0.2876625E-03
   maximum displ.:     0.1226021 α      in ANC's #3, #8, #4, ...

........................................................................
.............................. CYCLE   18 ..............................
........................................................................

 iter      E             dE          RMSdq      gap      omega  full diag
   1    -42.6657783 -0.426658E+02  0.475E-02    3.42       0.0  T
   2    -42.6657802 -0.187829E-05  0.276E-02    3.42       1.0  T
   3    -42.6657803 -0.119131E-06  0.508E-03    3.42       4.0  T
   4    -42.6657804 -0.452268E-07  0.131E-03    3.42      15.6  T
   5    -42.6657804 -0.165733E-08  0.619E-04    3.42      33.0  T
   6    -42.6657804 -0.329964E-08  0.145E-04    3.42     140.4  T
     SCC iter.                  ...        0 min,  0.004 sec
     gradient                   ...        0 min,  0.002 sec
 * total energy  :   -42.1538228 Eh     change       -0.1327250E-03 Eh
   gradient norm :     0.0025718 Eh/α   predicted    -0.1495289E-03 (  12.66%)
   displ. norm   :     0.0157457 α      lambda       -0.8243870E-05
   maximum displ.:     0.0104470 α      in ANC's #3, #2, #6, ...

........................................................................
.............................. CYCLE   19 ..............................
........................................................................

 iter      E             dE          RMSdq      gap      omega  full diag
   1    -42.6661336 -0.426661E+02  0.560E-03    3.42       0.0  T
   2    -42.6661336 -0.327046E-07  0.320E-03    3.42       6.4  T
   3    -42.6661336 -0.206246E-08  0.683E-04    3.42      29.9  T
   4    -42.6661336 -0.108187E-08  0.192E-04    3.42     106.3  T
     SCC iter.                  ...        0 min,  0.003 sec
     gradient                   ...        0 min,  0.002 sec
 * total energy  :   -42.1538294 Eh     change       -0.6596840E-05 Eh
   gradient norm :     0.0016725 Eh/α   predicted    -0.4126327E-05 ( -37.45%)
   displ. norm   :     0.0726810 α      lambda       -0.1174046E-04
   maximum displ.:     0.0518042 α      in ANC's #3, #6, #8, ...

........................................................................
.............................. CYCLE   20 ..............................
........................................................................

 iter      E             dE          RMSdq      gap      omega  full diag
   1    -42.6667877 -0.426668E+02  0.178E-02    3.42       0.0  T
   2    -42.6667879 -0.178329E-06  0.104E-02    3.42       2.0  T
   3    -42.6667879  0.278320E-07  0.218E-03    3.42       9.4  T
   4    -42.6667879 -0.487183E-07  0.710E-04    3.42      28.7  T
   5    -42.6667879 -0.670290E-08  0.314E-04    3.42      65.1  T
     SCC iter.                  ...        0 min,  0.005 sec
     gradient                   ...        0 min,  0.002 sec
 * total energy  :   -42.1538391 Eh     change       -0.9662446E-05 Eh
   gradient norm :     0.0009237 Eh/α   predicted    -0.5897158E-05 ( -38.97%)
   displ. norm   :     0.0886765 α      lambda       -0.7008620E-05
   maximum displ.:     0.0579760 α      in ANC's #3, #8, #4, ...
 * RMSD in coord.:     0.2905167 α      energy gain  -0.2194311E-01 Eh

generating ANC from model Hessian ...
Using Lindh-Hessian (1995)
 Shifting diagonal of input Hessian by    6.7496519537991618E-003
 Lowest  eigenvalues of input Hessian
    0.000000    0.000000    0.000000    0.000000    0.000000    0.000000
    0.010000    0.010956    0.012546    0.015942    0.016565    0.018817
    0.019543    0.020863    0.028282    0.030496    0.043799    0.051180
 Highest eigenvalues
    2.033347    2.114209    2.158079    2.202934    2.428301    2.517170


........................................................................
.............................. CYCLE   21 ..............................
........................................................................

 iter      E             dE          RMSdq      gap      omega  full diag
   1    -42.6665509 -0.426666E+02  0.177E-02    3.42       0.0  T
   2    -42.6665509 -0.500133E-07  0.106E-02    3.42       1.9  T
   3    -42.6665509  0.268117E-07  0.148E-03    3.42      13.8  T
   4    -42.6665510 -0.401325E-07  0.439E-04    3.42      46.5  T
   5    -42.6665510 -0.174592E-08  0.192E-04    3.42     106.3  T
     SCC iter.                  ...        0 min,  0.003 sec
     gradient                   ...        0 min,  0.002 sec
 * total energy  :   -42.1538485 Eh     change       -0.9462702E-05 Eh
   gradient norm :     0.0005634 Eh/α   predicted     0.0000000E+00 (-100.00%)
   displ. norm   :     0.0122378 α      lambda       -0.2784915E-06
   maximum displ.:     0.0070264 α      in ANC's #8, #2, #3, ...

........................................................................
.............................. CYCLE   22 ..............................
........................................................................

 iter      E             dE          RMSdq      gap      omega  full diag
   1    -42.6665958 -0.426666E+02  0.408E-03    3.42       0.0  T
   2    -42.6665958 -0.565504E-08  0.237E-03    3.42       8.6  T
   3    -42.6665958 -0.398202E-09  0.284E-04    3.42      71.9  T
   4    -42.6665958 -0.792326E-09  0.120E-04    3.42     169.8  T
     SCC iter.                  ...        0 min,  0.002 sec
     gradient                   ...        0 min,  0.002 sec
 * total energy  :   -42.1538504 Eh     change       -0.1851708E-05 Eh
   gradient norm :     0.0003213 Eh/α   predicted    -0.7725081E-06 ( -58.28%)
   displ. norm   :     0.0477257 α      lambda       -0.4145281E-05
   maximum displ.:     0.0291425 α      in ANC's #8, #2, #3, ...

   *** GEOMETRY OPTIMIZATION CONVERGED AFTER 22 ITERATIONS ***

------------------------------------------------------------------------
 total energy gain   :        -0.0219544 Eh      -13.7766 kcal/mol
 total RMSD          :         0.2919452 a0        0.1545 Å
 total power (kW/mol):        -2.6200606 (step) -342.5587 (real)
------------------------------------------------------------------------

 ANCopt (total)                0 d,  0 h,  0 min,  0.168 sec
 optimizer setup                ...        0 min,  0.001 sec (  0.303%)
 model hessian                  ...        0 min,  0.008 sec (  4.796%)
 ANC generation                 ...        0 min,  0.001 sec (  0.745%)
 coordinate transformation      ...        0 min,  0.000 sec (  0.066%)
 single point calculation       ...        0 min,  0.142 sec ( 84.559%)
 optimization log               ...        0 min,  0.002 sec (  1.288%)
 hessian update                 ...        0 min,  0.000 sec (  0.202%)
 rational function              ...        0 min,  0.011 sec (  6.628%)

================
 final structure:
================
24
 xtb: 6.6.0 (conda-forge)
C            3.32055319564365        0.02278387431817        0.18087015563979
N            2.06337695065489        0.69561610056496        0.02587985862363
C            1.82491534843325        2.01588179729007       -0.04937115590872
N            0.55176454383253        2.31516023761128       -0.19830061916386
C           -0.07795501154353        1.11968238565307       -0.22304769763860
C            0.83552248048908        0.08429337270819       -0.08451705697905
C            0.45018105240492       -1.29431403058618       -0.06744365457787
O            1.18488539339712       -2.25659933478187        0.05037569848951
N           -0.93409400061156       -1.42583767782391       -0.20775833396643
C           -1.87536134122932       -0.41310188844028       -0.34906251834917
O           -3.05510376980055       -0.66309739224710       -0.46020382695787
N           -1.40998025817580        0.88494156336875       -0.35055934654044
C           -2.34622899478901        1.97670592717678       -0.50880117187138
C           -1.48116517355225       -2.77277072207421       -0.21167357502722
H            3.28836585085123       -0.62601598768505        1.05703442747431
H            4.11319698098658        0.75985481493113        0.29435087706720
H            3.52012298519264       -0.60243332971983       -0.69093166253115
H            2.60040218116023        2.75371097195598        0.00726095328887
H           -3.27513712371420        1.71748603448120       -0.00340832720150
H           -1.89961847036617        2.86872857321806       -0.07725223972047
H           -2.55601305056487        2.14737363004183       -1.56618115729947
H           -2.11034267363567       -2.92215949536634        0.66576599512561
H           -2.08831697219374       -2.91855151314594       -1.10408481648922
H           -0.64447012286948       -3.46733791144876       -0.19764080548651

 Bond Distances (Angstroems)
 ---------------------------
C1-N2=1.4343         C1-H15=1.0907        C1-H16=1.0883        C1-H17=1.0912        N2-C1=1.4343         N2-C3=1.3437         
N2-C6=1.3761         C3-N2=1.3437         C3-N4=1.3163         C3-H18=1.0719        N4-C3=1.3163         N4-C5=1.3514         
C5-N4=1.3514         C5-C6=1.3877         C5-N12=1.3585        C6-N2=1.3761         C6-C5=1.3877         C6-C7=1.4316         
C7-C6=1.4316         C7-O8=1.2164         C7-N9=1.3976         O8-C7=1.2164         N9-C7=1.3976         N9-C10=1.3898        
N9-C14=1.4538        C10-N9=1.3898        C10-O11=1.2111       C10-N12=1.3789       O11-C10=1.2111       N12-C5=1.3585        
N12-C10=1.3789       N12-C13=1.4469       C13-N12=1.4469       C13-H19=1.0888       C13-H20=1.0869       C13-H21=1.0914       
C14-N9=1.4538        C14-H22=1.0900       C14-H23=1.0892       C14-H24=1.0875       H15-C1=1.0907        H16-C1=1.0883        
H17-C1=1.0912        H18-C3=1.0719        H19-C13=1.0888       H20-C13=1.0869       H21-C13=1.0914       H22-C14=1.0900       
H23-C14=1.0892       H24-C14=1.0875       
 C  H  Rav=1.0876 sigma=0.0054  Rmin=1.0719  Rmax=1.0914    10
 C  C  Rav=1.4096 sigma=0.0219  Rmin=1.3877  Rmax=1.4316     2
 N  C  Rav=1.3861 sigma=0.0421  Rmin=1.3163  Rmax=1.4538    11
 O  C  Rav=1.2137 sigma=0.0027  Rmin=1.2111  Rmax=1.2164     2

 selected bond angles (degree)
 --------------------
H15-C1-N2=109.88               H16-C1-N2=109.39               H16-C1-H15=109.91              H17-C1-N2=110.04               
H17-C1-H15=107.84              H17-C1-H16=109.76              C3-N2-C1=128.50                C6-N2-C1=125.62                
C6-N2-C3=105.88                N4-C3-N2=113.66                H18-C3-N2=123.02               H18-C3-N4=123.31               
C5-N4-C3=104.57                C6-C5-N4=110.58                N12-C5-N4=127.69               N12-C5-C6=121.73               
C5-C6-N2=105.30                C7-C6-N2=131.84                C7-C6-C5=122.86                O8-C7-C6=126.90                
N9-C7-C6=110.86                N9-C7-O8=122.24                C10-N9-C7=127.77               C14-N9-C7=117.40               
C14-N9-C10=114.83              O11-C10-N9=121.24              N12-C10-N9=117.22              N12-C10-O11=121.53             

 selected dihedral angles (degree)
 ---------------------------------
C3-N2-C1-H15=124.09           C3-N2-C1-H16=  3.35           C3-N2-C1-H17=242.69           C6-N2-C1-H15=303.70           
C6-N2-C1-H16=182.96           C6-N2-C1-H17= 62.30           N4-C3-N2-C1=179.69            N4-C3-N2-C6=  0.00            
H18-C3-N2-C1=359.66           H18-C3-N2-C6=180.00           C5-N4-C3-N2=359.94            C5-N4-C3-H18=179.96           
C6-C5-N4-C3=  0.08            N12-C5-N4-C3=179.56           C5-C6-N2-C1=180.35            C5-C6-N2-C3=  0.03            
C7-C6-N2-C1=  0.71            C7-C6-N2-C3=180.39            N2-C6-C5-N4=359.93            N2-C6-C5-N12=180.42           
C7-C6-C5-N4=179.61            C7-C6-C5-N12=  0.09           O8-C7-C6-N2=359.64            O8-C7-C6-C5=180.06            
N9-C7-C6-N2=179.63            N9-C7-C6-C5=  0.05            C10-N9-C7-C6=  0.00           C10-N9-C7-O8=179.98           
C14-N9-C7-C6=179.88           C14-N9-C7-O8=359.87           O11-C10-N9-C7=180.15          O11-C10-N9-C14=  0.25         
N12-C10-N9-C7=359.84          N12-C10-N9-C14=179.94         
           -------------------------------------------------
          |                Final Singlepoint                |
           -------------------------------------------------

          ...................................................
          :                      SETUP                      :
          :.................................................:
          :  # basis functions                  66          :
          :  # atomic orbitals                  66          :
          :  # shells                           38          :
          :  # electrons                        74          :
          :  max. iterations                   250          :
          :  Hamiltonian                  GFN2-xTB          :
          :  restarted?                      false          :
          :  GBSA solvation                  false          :
          :  PC potential                    false          :
          :  electronic temp.          300.0000000     K    :
          :  accuracy                    1.0000000          :
          :  -> integral cutoff          0.2500000E+02      :
          :  -> integral neglect         0.1000000E-07      :
          :  -> SCF convergence          0.1000000E-05 Eh   :
          :  -> wf. convergence          0.1000000E-03 e    :
          :  Broyden damping             0.4000000          :
          ...................................................

 iter      E             dE          RMSdq      gap      omega  full diag
   1    -42.6665958 -0.426666E+02  0.630E-05    3.42       0.0  T
   2    -42.6665958 -0.885336E-11  0.383E-05    3.42     533.5  T
   3    -42.6665958 -0.250822E-11  0.246E-05    3.42     828.1  T

   *** convergence criteria satisfied after 3 iterations ***

         #    Occupation            Energy/Eh            Energy/eV
      -------------------------------------------------------------
         1        2.0000           -0.7199610             -19.5911
       ...           ...                  ...                  ...
        31        2.0000           -0.4602735             -12.5247
        32        2.0000           -0.4362256             -11.8703
        33        2.0000           -0.4276291             -11.6364
        34        2.0000           -0.4182475             -11.3811
        35        2.0000           -0.4139235             -11.2634
        36        2.0000           -0.4041345             -10.9971
        37        2.0000           -0.3884114             -10.5692 (HOMO)
        38                         -0.2626281              -7.1465 (LUMO)
        39                         -0.2185953              -5.9483
        40                         -0.2049210              -5.5762
        41                         -0.1215489              -3.3075
        42                         -0.0433352              -1.1792
       ...                                ...                  ...
        66                          0.6955433              18.9267
      -------------------------------------------------------------
                  HL-Gap            0.1257833 Eh            3.4227 eV
             Fermi-level           -0.3255197 Eh           -8.8578 eV

 SCC (total)                   0 d,  0 h,  0 min,  0.004 sec
 SCC setup                      ...        0 min,  0.000 sec (  3.087%)
 Dispersion                     ...        0 min,  0.000 sec (  2.865%)
 classical contributions        ...        0 min,  0.000 sec (  0.840%)
 integral evaluation            ...        0 min,  0.001 sec ( 12.809%)
 iterations                     ...        0 min,  0.001 sec ( 33.391%)
 molecular gradient             ...        0 min,  0.002 sec ( 43.958%)
 printout                       ...        0 min,  0.000 sec (  2.751%)

         :::::::::::::::::::::::::::::::::::::::::::::::::::::
         ::                     SUMMARY                     ::
         :::::::::::::::::::::::::::::::::::::::::::::::::::::
         :: total energy             -42.153850386506 Eh    ::
         :: gradient norm              0.000321496620 Eh/a0 ::
         :: HOMO-LUMO gap              3.422738316138 eV    ::
         ::.................................................::
         :: SCC energy               -42.666595845454 Eh    ::
         :: -> isotropic ES            0.083652480391 Eh    ::
         :: -> anisotropic ES          0.002957170045 Eh    ::
         :: -> anisotropic XC          0.013386792132 Eh    ::
         :: -> dispersion             -0.023328922218 Eh    ::
         :: repulsion energy           0.512645518955 Eh    ::
         :: add. restraining           0.000000000000 Eh    ::
         :: total charge              -0.000000000000 e     ::
         :::::::::::::::::::::::::::::::::::::::::::::::::::::

           -------------------------------------------------
          |                Property Printout                |
           -------------------------------------------------

    * Orbital Energies and Occupations

         #    Occupation            Energy/Eh            Energy/eV
      -------------------------------------------------------------
         1        2.0000           -0.7199610             -19.5911
       ...           ...                  ...                  ...
        25        2.0000           -0.5058733             -13.7655
        26        2.0000           -0.5046319             -13.7317
        27        2.0000           -0.5034483             -13.6995
        28        2.0000           -0.4946003             -13.4588
        29        2.0000           -0.4813424             -13.0980
        30        2.0000           -0.4742342             -12.9046
        31        2.0000           -0.4602735             -12.5247
        32        2.0000           -0.4362256             -11.8703
        33        2.0000           -0.4276291             -11.6364
        34        2.0000           -0.4182475             -11.3811
        35        2.0000           -0.4139235             -11.2634
        36        2.0000           -0.4041345             -10.9971
        37        2.0000           -0.3884114             -10.5692 (HOMO)
        38                         -0.2626281              -7.1465 (LUMO)
        39                         -0.2185953              -5.9483
        40                         -0.2049210              -5.5762
        41                         -0.1215489              -3.3075
        42                         -0.0433352              -1.1792
        43                          0.0028322               0.0771
        44                          0.0225248               0.6129
        45                          0.0854115               2.3242
        46                          0.0925688               2.5189
        47                          0.1184422               3.2230
        48                          0.1290236               3.5109
       ...                                ...                  ...
        66                          0.6955433              18.9267
      -------------------------------------------------------------
                  HL-Gap            0.1257833 Eh            3.4227 eV
             Fermi-level           -0.3255197 Eh           -8.8578 eV

     #   Z          covCN         q      C6AA      α(0)
     1   6 C        3.689    -0.055    21.755     6.675
     2   7 N        2.837     0.003    21.213     6.841
     3   6 C        3.203     0.089    25.484     8.224
     4   7 N        1.896    -0.286    28.255     7.880
     5   6 C        3.193     0.123    24.836     8.127
     6   6 C        3.121    -0.041    28.823     8.793
     7   6 C        2.764     0.264    22.555     7.778
     8   8 O        0.858    -0.436    22.422     6.349
     9   7 N        2.750    -0.118    23.559     7.209
    10   6 C        2.731     0.313    21.680     7.623
    11   8 O        0.860    -0.438    22.464     6.355
    12   7 N        2.741    -0.076    22.718     7.079
    13   6 C        3.700    -0.050    21.629     6.651
    14   6 C        3.709    -0.041    21.459     6.621
    15   1 H        0.924     0.084     1.942     2.179
    16   1 H        0.925     0.066     2.133     2.284
    17   1 H        0.924     0.080     1.974     2.197
    18   1 H        0.926     0.055     2.263     2.352
    19   1 H        0.925     0.085     1.929     2.172
    20   1 H        0.925     0.085     1.932     2.173
    21   1 H        0.924     0.068     2.112     2.273
    22   1 H        0.925     0.067     2.118     2.276
    23   1 H        0.925     0.071     2.071     2.251
    24   1 H        0.925     0.090     1.881     2.145

 Mol. C6AA /au·bohr⁶  :       6700.243080
 Mol. C8AA /au·bohr⁸  :     153310.713569
 Mol. α(0) /au        :        124.504659


Wiberg/Mayer (AO) data.
largest (>0.10) Wiberg bond orders for each atom

 ---------------------------------------------------------------------------
     #   Z sym  total        # sym  WBO       # sym  WBO       # sym  WBO
 ---------------------------------------------------------------------------
     1   6 C    3.959 --     2 N    1.000    16 H    0.981    15 H    0.970
                            17 H    0.969
     2   7 N    3.652 --     3 C    1.306     6 C    1.149     1 C    1.000
                             4 N    0.109
     3   6 C    3.955 --     4 N    1.477     2 N    1.306    18 H    0.962
     4   7 N    3.007 --     3 C    1.477     5 C    1.285     2 N    0.109
     5   6 C    3.967 --     6 C    1.346     4 N    1.285    12 N    1.144
     6   6 C    3.935 --     5 C    1.346     2 N    1.149     7 C    1.110
     7   6 C    3.960 --     8 O    1.645     6 C    1.110     9 N    1.097
     8   8 O    2.003 --     7 C    1.645     9 N    0.147
     9   7 N    3.545 --    10 C    1.107     7 C    1.097    14 C    0.982
                             8 O    0.147    11 O    0.131
    10   6 C    3.961 --    11 O    1.635    12 N    1.122     9 N    1.107
    11   8 O    1.989 --    10 C    1.635    12 N    0.139     9 N    0.131
    12   7 N    3.563 --     5 C    1.144    10 C    1.122    13 C    0.981
                            11 O    0.139
    13   6 C    3.948 --    12 N    0.981    20 H    0.977    19 H    0.975
                            21 H    0.973
    14   6 C    3.948 --     9 N    0.982    23 H    0.975    22 H    0.975
                            24 H    0.973
    15   1 H    0.993 --     1 C    0.970
    16   1 H    0.995 --     1 C    0.981
    17   1 H    0.993 --     1 C    0.969
    18   1 H    0.996 --     3 C    0.962
    19   1 H    0.992 --    13 C    0.975
    20   1 H    0.992 --    13 C    0.977
    21   1 H    0.994 --    13 C    0.973
    22   1 H    0.995 --    14 C    0.975
    23   1 H    0.994 --    14 C    0.975
    24   1 H    0.991 --    14 C    0.973
 ---------------------------------------------------------------------------

Topologies differ in total number of bonds
Writing topology from bond orders to xtbtopo.mol

molecular dipole:
                 x           y           z       tot (Debye)
 q only:        1.027       0.931       0.084
   full:        1.357       0.840       0.107       4.067
molecular quadrupole (traceless):
                xx          xy          yy          xz          yz          zz
 q only:        2.848       1.635      -1.554      -0.221      -0.011      -1.293
  q+dip:        2.312       3.876      -5.554      -0.930       0.469       3.242
   full:        1.758       3.701      -6.375      -1.133       0.561       4.617

           -------------------------------------------------
          |                Geometry Summary                 |
           -------------------------------------------------

      molecular mass/u    :      194.1909174
   center of mass at/Å    :       -0.0893831      -0.0181899      -0.1760680
  moments of inertia/u·Å² :        0.4704865E+03   0.7058846E+03   0.1166916E+04
rotational constants/cm⁻¹ :        0.3583021E-01   0.2388157E-01   0.1444632E-01

 * 25 selected distances

     #   Z          #   Z                                           value/Å
     1   6 C        2   7 N                                       1.4343004
     2   7 N        3   6 C                                       1.3437368
     3   6 C        4   7 N                                       1.3163058
     4   7 N        5   6 C                                       1.3514166
     2   7 N        6   6 C                                       1.3760559
     5   6 C        6   6 C                                       1.3876825
     6   6 C        7   6 C                                       1.4315510
     7   6 C        8   8 O                                       1.2164149
     7   6 C        9   7 N                                       1.3975709
     9   7 N       10   6 C                                       1.3898148
    10   6 C       11   8 O                                       1.2110502
     5   6 C       12   7 N                                       1.3585485
    10   6 C       12   7 N                                       1.3789485
    12   7 N       13   6 C                                       1.4469112
     9   7 N       14   6 C                                       1.4537989 (max)
     1   6 C       15   1 H                                       1.0907068
     1   6 C       16   1 H                                       1.0883179
     1   6 C       17   1 H                                       1.0912210
     3   6 C       18   1 H                                       1.0719044 (min)
    13   6 C       19   1 H                                       1.0888009
    13   6 C       20   1 H                                       1.0869223
    13   6 C       21   1 H                                       1.0914163
    14   6 C       22   1 H                                       1.0899916
    14   6 C       23   1 H                                       1.0891664
    14   6 C       24   1 H                                       1.0875106

 * 4 distinct bonds (by element types)

   Z      Z             #   av. dist./Å        max./Å        min./Å
   1 H    6 C          10     1.0875958     1.0914163     1.0719044
   6 C    6 C           2     1.4096167     1.4315510     1.3876825
   6 C    7 N          11     1.3861280     1.4537989     1.3163058
   6 C    8 O           2     1.2137325     1.2164149     1.2110502


optimized geometry written to: xtbopt.xyz


           -------------------------------------------------
          | TOTAL ENERGY              -42.153850386506 Eh   |
          | GRADIENT NORM               0.000321496620 Eh/α |
          | HOMO-LUMO GAP               3.422738316138 eV   |
           -------------------------------------------------

------------------------------------------------------------------------
 * finished run on 2024/09/10 at 11:25:31.922     
------------------------------------------------------------------------
 total:
 * wall-time:     0 d,  0 h,  0 min,  0.488 sec
 *  cpu-time:     0 d,  0 h,  0 min,  3.078 sec
 * ratio c/w:     6.303 speedup
 SCF:
 * wall-time:     0 d,  0 h,  0 min,  0.044 sec
 *  cpu-time:     0 d,  0 h,  0 min,  0.246 sec
 * ratio c/w:     5.630 speedup
 ANC optimizer:
 * wall-time:     0 d,  0 h,  0 min,  0.174 sec
 *  cpu-time:     0 d,  0 h,  0 min,  1.317 sec
 * ratio c/w:     7.560 speedup

