      -----------------------------------------------------------      
     |                   =====================                   |     
     |                           x T B                           |     
     |                   =====================                   |     
     |                         S. Grimme                         |     
     |          Mulliken Center for Theoretical Chemistry        |     
     |                    University of Bonn                     |     
      -----------------------------------------------------------      

   * xtb version 6.6.0 (conda-forge) compiled by 'runner@Mac-1676020848589.local' on 2023-02-10

   xtb is free software: you can redistribute it and/or modify it under
   the terms of the GNU Lesser General Public License as published by
   the Free Software Foundation, either version 3 of the License, or
   (at your option) any later version.
   
   xtb is distributed in the hope that it will be useful,
   but WITHOUT ANY WARRANTY; without even the implied warranty of
   MERCHANTABILITY or FITNESS FOR A PARTICULAR PURPOSE.  See the
   GNU Lesser General Public License for more details.
   
   Cite this work as:
   * C. Bannwarth, E. Caldeweyher, S. Ehlert, A. Hansen, P. Pracht,
     J. Seibert, S. Spicher, S. Grimme, WIREs Comput. Mol. Sci., 2020, 11,
     e01493. DOI: 10.1002/wcms.1493
   
   for GFN2-xTB:
   * C. Bannwarth, S. Ehlert and S. Grimme., J. Chem. Theory Comput., 2019,
     15, 1652-1671. DOI: 10.1021/acs.jctc.8b01176
   for GFN1-xTB:
   * S. Grimme, C. Bannwarth, P. Shushkov, J. Chem. Theory Comput., 2017,
     13, 1989-2009. DOI: 10.1021/acs.jctc.7b00118
   for GFN0-xTB:
   * P. Pracht, E. Caldeweyher, S. Ehlert, S. Grimme, ChemRxiv, 2019, preprint.
     DOI: 10.26434/chemrxiv.8326202.v1
   for GFN-FF:
   * S. Spicher and S. Grimme, Angew. Chem. Int. Ed., 2020, 59, 15665-15673.
     DOI: 10.1002/anie.202004239
   
   for ALPB and GBSA implicit solvation:
   * S. Ehlert, M. Stahn, S. Spicher, S. Grimme, J. Chem. Theory Comput.,
     2021, 17, 4250-4261. DOI: 10.1021/acs.jctc.1c00471
   
   for DFT-D4:
   * E. Caldeweyher, C. Bannwarth and S. Grimme, J. Chem. Phys., 2017,
     147, 034112. DOI: 10.1063/1.4993215
   * E. Caldeweyher, S. Ehlert, A. Hansen, H. Neugebauer, S. Spicher,
     C. Bannwarth and S. Grimme, J. Chem. Phys., 2019, 150, 154122.
     DOI: 10.1063/1.5090222
   * E. Caldeweyher, J.-M. Mewes, S. Ehlert and S. Grimme, Phys. Chem. Chem. Phys.
     2020, 22, 8499-8512. DOI: 10.1039/D0CP00502A
   
   for sTDA-xTB:
   * S. Grimme and C. Bannwarth, J. Chem. Phys., 2016, 145, 054103.
     DOI: 10.1063/1.4959605
   
   in the mass-spec context:
   * V. Asgeirsson, C. Bauer and S. Grimme, Chem. Sci., 2017, 8, 4879.
     DOI: 10.1039/c7sc00601b
   * J. Koopman and S. Grimme, ACS Omega 2019, 4, 12, 15120-15133.
     DOI: 10.1021/acsomega.9b02011
   
   for metadynamics refer to:
   * S. Grimme, J. Chem. Theory Comput., 2019, 155, 2847-2862
     DOI: 10.1021/acs.jctc.9b00143
   
   for SPH calculations refer to:
   * S. Spicher and S. Grimme, J. Chem. Theory Comput., 2021, 17, 1701-1714
     DOI: 10.1021/acs.jctc.0c01306
   
   with help from (in alphabetical order)
   P. Atkinson, C. Bannwarth, F. Bohle, G. Brandenburg, E. Caldeweyher
   M. Checinski, S. Dohm, S. Ehlert, S. Ehrlich, I. Gerasimov, C. Hölzer
   A. Katbashev, J. Koopman, C. Lavigne, S. Lehtola, F. März, M. Müller,
   F. Musil, H. Neugebauer, J. Pisarek, C. Plett, P. Pracht, F. Pultar,
   J. Seibert, P. Shushkov, S. Spicher, M. Stahn, M. Steiner, T. Strunk,
   J. Stückrath, T. Rose, and J. Unsleber
   
 * started run on 2024/09/20 at 14:46:25.609     

           -------------------------------------------------
          |                Calculation Setup                |
           -------------------------------------------------

          program call               : xtb methylliberine.xyz --opt --gfn2
          coordinate file            : methylliberine.xyz
          omp threads                :                     8

   ID    Z sym.   atoms
    1    6 C      1, 3, 4, 6, 8, 10, 12, 14, 16
    2    7 N      2, 5, 7, 13
    3    8 O      9, 11, 15
    4    1 H      17-28

           -------------------------------------------------
          |                 G F N 2 - x T B                 |
           -------------------------------------------------

        Reference                      10.1021/acs.jctc.8b01176
      * Hamiltonian:
        H0-scaling (s, p, d)           1.850000    2.230000    2.230000
        zeta-weighting                 0.500000
      * Dispersion:
        s8                             2.700000
        a1                             0.520000
        a2                             5.000000
        s9                             5.000000
      * Repulsion:
        kExp                           1.500000    1.000000
        rExp                           1.000000
      * Coulomb:
        alpha                          2.000000
        third order                    shell-resolved
        anisotropic                    true
        a3                             3.000000
        a5                             4.000000
        cn-shift                       1.200000
        cn-exp                         4.000000
        max-rad                        5.000000


          ...................................................
          :                      SETUP                      :
          :.................................................:
          :  # basis functions                  76          :
          :  # atomic orbitals                  76          :
          :  # shells                           44          :
          :  # electrons                        86          :
          :  max. iterations                   250          :
          :  Hamiltonian                  GFN2-xTB          :
          :  restarted?                      false          :
          :  GBSA solvation                  false          :
          :  PC potential                    false          :
          :  electronic temp.          300.0000000     K    :
          :  accuracy                    1.0000000          :
          :  -> integral cutoff          0.2500000E+02      :
          :  -> integral neglect         0.1000000E-07      :
          :  -> SCF convergence          0.1000000E-05 Eh   :
          :  -> wf. convergence          0.1000000E-03 e    :
          :  Broyden damping             0.4000000          :
          ...................................................

 iter      E             dE          RMSdq      gap      omega  full diag
   1    -49.6991680 -0.496992E+02  0.439E+00    3.56       0.0  T
   2    -49.8721632 -0.172995E+00  0.235E+00    2.58       1.0  T
   3    -49.8760046 -0.384146E-02  0.131E+00    2.85       1.0  T
   4    -49.8722653  0.373932E-02  0.477E-01    2.53       1.0  T
   5    -49.8785293 -0.626396E-02  0.914E-02    2.74       1.0  T
   6    -49.8785770 -0.477745E-04  0.524E-02    2.71       1.0  T
   7    -49.8785889 -0.118134E-04  0.174E-02    2.72       1.1  T
   8    -49.8785900 -0.115157E-05  0.588E-03    2.72       3.2  T
   9    -49.8785903 -0.244878E-06  0.341E-03    2.72       5.5  T
  10    -49.8785904 -0.962706E-07  0.105E-03    2.72      17.9  T
  11    -49.8785904 -0.866368E-08  0.467E-04    2.72      40.5  T
  12    -49.8785904 -0.839734E-09  0.160E-04    2.72     118.3  T

   *** convergence criteria satisfied after 12 iterations ***

         #    Occupation            Energy/Eh            Energy/eV
      -------------------------------------------------------------
         1        2.0000           -0.7458520             -20.2957
       ...           ...                  ...                  ...
        37        2.0000           -0.4481982             -12.1961
        38        2.0000           -0.4363692             -11.8742
        39        2.0000           -0.4165273             -11.3343
        40        2.0000           -0.4143383             -11.2747
        41        2.0000           -0.4005466             -10.8994
        42        2.0000           -0.3928474             -10.6899
        43        2.0000           -0.3648122              -9.9270 (HOMO)
        44                         -0.2647816              -7.2051 (LUMO)
        45                         -0.2442923              -6.6475
        46                         -0.1806375              -4.9154
        47                         -0.1154354              -3.1412
        48                         -0.0810801              -2.2063
       ...                                ...                  ...
        76                          0.6726365              18.3034
      -------------------------------------------------------------
                  HL-Gap            0.1000306 Eh            2.7220 eV
             Fermi-level           -0.3147969 Eh           -8.5661 eV

 SCC (total)                   0 d,  0 h,  0 min,  0.021 sec
 SCC setup                      ...        0 min,  0.000 sec (  1.818%)
 Dispersion                     ...        0 min,  0.000 sec (  0.729%)
 classical contributions        ...        0 min,  0.000 sec (  0.203%)
 integral evaluation            ...        0 min,  0.001 sec (  5.224%)
 iterations                     ...        0 min,  0.017 sec ( 79.227%)
 molecular gradient             ...        0 min,  0.003 sec ( 12.160%)
 printout                       ...        0 min,  0.000 sec (  0.569%)

         :::::::::::::::::::::::::::::::::::::::::::::::::::::
         ::                     SUMMARY                     ::
         :::::::::::::::::::::::::::::::::::::::::::::::::::::
         :: total energy             -49.360865149795 Eh    ::
         :: gradient norm              0.194625004572 Eh/a0 ::
         :: HOMO-LUMO gap              2.721970478167 eV    ::
         ::.................................................::
         :: SCC energy               -49.878590362270 Eh    ::
         :: -> isotropic ES            0.116118702549 Eh    ::
         :: -> anisotropic ES          0.000891839787 Eh    ::
         :: -> anisotropic XC          0.011797279737 Eh    ::
         :: -> dispersion             -0.026868594714 Eh    ::
         :: repulsion energy           0.517635704018 Eh    ::
         :: add. restraining           0.000000000000 Eh    ::
         :: total charge              -0.000000000000 e     ::
         :::::::::::::::::::::::::::::::::::::::::::::::::::::

      ----------------------------------------------------------- 
     |                   =====================                   |
     |                        A N C O P T                        |
     |                   =====================                   |
     |               Approximate Normal Coordinate               |
     |                Rational Function Optimizer                |
      ----------------------------------------------------------- 

          ...................................................
          :                      SETUP                      :
          :.................................................:
          :   optimization level            normal          :
          :   max. optcycles                   200          :
          :   ANC micro-cycles                  20          :
          :   degrees of freedom                78          :
          :.................................................:
          :   RF solver                   davidson          :
          :   write xtbopt.log                true          :
          :   linear?                        false          :
          :   energy convergence         0.5000000E-05 Eh   :
          :   grad. convergence          0.1000000E-02 Eh/α :
          :   maxmium RF displ.          1.0000000          :
          :   Hlow (freq-cutoff)         0.1000000E-01      :
          :   Hmax (freq-cutoff)         5.0000000          :
          :   S6 in model hess.         20.0000000          :
          ...................................................

generating ANC from model Hessian ...
Using Lindh-Hessian (1995)
 Shifting diagonal of input Hessian by    9.0091023589486483E-003
 Lowest  eigenvalues of input Hessian
    0.000000    0.000000    0.000000    0.000000    0.000000    0.000000
    0.010000    0.012368    0.012598    0.012993    0.014878    0.015493
    0.017503    0.018270    0.020517    0.021599    0.022172    0.024650
 Highest eigenvalues
    2.066987    2.083685    2.263467    2.392626    2.410981    2.450526


........................................................................
.............................. CYCLE    1 ..............................
........................................................................

 iter      E             dE          RMSdq      gap      omega  full diag
   1    -49.8785904 -0.498786E+02  0.586E-05    2.72       0.0  T
   2    -49.8785904 -0.706279E-11  0.352E-05    2.72     536.9  T
   3    -49.8785904  0.341061E-11  0.237E-05    2.72     797.3  T
     SCC iter.                  ...        0 min,  0.004 sec
     gradient                   ...        0 min,  0.002 sec
 * total energy  :   -49.3608652 Eh     change       -0.2394458E-09 Eh
   gradient norm :     0.1946238 Eh/α   predicted     0.0000000E+00 (-100.00%)
   displ. norm   :     0.3736304 α      lambda       -0.3843706E-01
   maximum displ.:     0.1748666 α      in ANC's #15, #21, #37, ...

........................................................................
.............................. CYCLE    2 ..............................
........................................................................

 iter      E             dE          RMSdq      gap      omega  full diag
   1    -49.9290242 -0.499290E+02  0.386E-01    2.94       0.0  T
   2    -49.9308614 -0.183716E-02  0.250E-01    2.93       1.0  T
   3    -49.9313185 -0.457137E-03  0.125E-01    2.96       1.0  T
   4    -49.9313199 -0.138139E-05  0.539E-02    2.94       1.0  T
   5    -49.9313599 -0.399800E-04  0.113E-02    2.95       1.7  T
   6    -49.9313610 -0.115205E-05  0.600E-03    2.95       3.2  T
   7    -49.9313612 -0.143708E-06  0.192E-03    2.95       9.9  T
   8    -49.9313612 -0.529289E-07  0.866E-04    2.95      21.8  T
   9    -49.9313612 -0.297867E-08  0.356E-04    2.95      53.0  T
     SCC iter.                  ...        0 min,  0.007 sec
     gradient                   ...        0 min,  0.002 sec
 * total energy  :   -49.3890789 Eh     change       -0.2821376E-01 Eh
   gradient norm :     0.0890855 Eh/α   predicted    -0.2193470E-01 ( -22.26%)
   displ. norm   :     0.3783076 α      lambda       -0.1592446E-01
   maximum displ.:     0.2030351 α      in ANC's #15, #21, #12, ...

........................................................................
.............................. CYCLE    3 ..............................
........................................................................

 iter      E             dE          RMSdq      gap      omega  full diag
   1    -49.9625935 -0.499626E+02  0.346E-01    3.07       0.0  T
   2    -49.9639004 -0.130688E-02  0.200E-01    3.08       1.0  T
   3    -49.9641304 -0.230021E-03  0.103E-01    3.10       1.0  T
   4    -49.9641397 -0.924328E-05  0.411E-02    3.08       1.0  T
   5    -49.9641637 -0.240812E-04  0.101E-02    3.09       1.9  T
   6    -49.9641649 -0.119331E-05  0.519E-03    3.09       3.6  T
   7    -49.9641651 -0.151487E-06  0.129E-03    3.09      14.6  T
   8    -49.9641651 -0.126497E-07  0.691E-04    3.09      27.3  T
   9    -49.9641651 -0.178901E-08  0.264E-04    3.09      71.5  T
     SCC iter.                  ...        0 min,  0.006 sec
     gradient                   ...        0 min,  0.002 sec
 * total energy  :   -49.3981224 Eh     change       -0.9043504E-02 Eh
   gradient norm :     0.0241991 Eh/α   predicted    -0.9102624E-02 (   0.65%)
   displ. norm   :     0.2042908 α      lambda       -0.1740102E-02
   maximum displ.:     0.1145156 α      in ANC's #12, #15, #4, ...

........................................................................
.............................. CYCLE    4 ..............................
........................................................................

 iter      E             dE          RMSdq      gap      omega  full diag
   1    -49.9645379 -0.499645E+02  0.100E-01    3.12       0.0  T
   2    -49.9645612 -0.232977E-04  0.578E-02    3.11       1.0  T
   3    -49.9645576  0.362269E-05  0.279E-02    3.11       1.0  T
   4    -49.9645653 -0.769503E-05  0.692E-03    3.11       2.7  T
   5    -49.9645663 -0.101023E-05  0.225E-03    3.11       8.4  T
   6    -49.9645663 -0.412980E-07  0.101E-03    3.11      18.7  T
   7    -49.9645663 -0.674882E-08  0.336E-04    3.11      56.3  T
   8    -49.9645663 -0.964839E-09  0.127E-04    3.11     148.4  T
     SCC iter.                  ...        0 min,  0.006 sec
     gradient                   ...        0 min,  0.002 sec
 * total energy  :   -49.3993222 Eh     change       -0.1199826E-02 Eh
   gradient norm :     0.0140813 Eh/α   predicted    -0.9063639E-03 ( -24.46%)
   displ. norm   :     0.1993789 α      lambda       -0.7383621E-03
   maximum displ.:     0.1156674 α      in ANC's #4, #12, #7, ...

........................................................................
.............................. CYCLE    5 ..............................
........................................................................

 iter      E             dE          RMSdq      gap      omega  full diag
   1    -49.9648652 -0.499649E+02  0.758E-02    3.12       0.0  T
   2    -49.9648770 -0.118271E-04  0.435E-02    3.12       1.0  T
   3    -49.9648750  0.201479E-05  0.193E-02    3.12       1.0  T
   4    -49.9648785 -0.345769E-05  0.489E-03    3.12       3.9  T
   5    -49.9648791 -0.583468E-06  0.148E-03    3.12      12.8  T
   6    -49.9648791 -0.124715E-07  0.647E-04    3.12      29.2  T
   7    -49.9648791 -0.234260E-08  0.193E-04    3.12      98.1  T
     SCC iter.                  ...        0 min,  0.004 sec
     gradient                   ...        0 min,  0.002 sec
 * total energy  :   -49.3997940 Eh     change       -0.4717255E-03 Eh
   gradient norm :     0.0054510 Eh/α   predicted    -0.3838771E-03 ( -18.62%)
   displ. norm   :     0.1469321 α      lambda       -0.2283014E-03
   maximum displ.:     0.0957967 α      in ANC's #4, #7, #6, ...

........................................................................
.............................. CYCLE    6 ..............................
........................................................................

 iter      E             dE          RMSdq      gap      omega  full diag
   1    -49.9653599 -0.499654E+02  0.435E-02    3.12       0.0  T
   2    -49.9653628 -0.291261E-05  0.250E-02    3.12       1.0  T
   3    -49.9653621  0.683118E-06  0.975E-03    3.12       1.9  T
   4    -49.9653631 -0.103224E-05  0.251E-03    3.12       7.5  T
   5    -49.9653633 -0.143736E-06  0.883E-04    3.12      21.4  T
   6    -49.9653633 -0.314963E-08  0.362E-04    3.12      52.2  T
     SCC iter.                  ...        0 min,  0.004 sec
     gradient                   ...        0 min,  0.002 sec
 * total energy  :   -49.3999602 Eh     change       -0.1661886E-03 Eh
   gradient norm :     0.0042066 Eh/α   predicted    -0.1166225E-03 ( -29.83%)
   displ. norm   :     0.1809278 α      lambda       -0.1896174E-03
   maximum displ.:     0.1067191 α      in ANC's #4, #6, #7, ...

........................................................................
.............................. CYCLE    7 ..............................
........................................................................

 iter      E             dE          RMSdq      gap      omega  full diag
   1    -49.9657042 -0.499657E+02  0.456E-02    3.12       0.0  T
   2    -49.9657064 -0.219930E-05  0.268E-02    3.12       1.0  T
   3    -49.9657057  0.709231E-06  0.833E-03    3.12       2.3  T
   4    -49.9657067 -0.954618E-06  0.232E-03    3.12       8.2  T
   5    -49.9657068 -0.118862E-06  0.869E-04    3.12      21.7  T
   6    -49.9657068 -0.265639E-08  0.318E-04    3.12      59.5  T
     SCC iter.                  ...        0 min,  0.004 sec
     gradient                   ...        0 min,  0.002 sec
 * total energy  :   -49.4000924 Eh     change       -0.1322860E-03 Eh
   gradient norm :     0.0050600 Eh/α   predicted    -0.9791326E-04 ( -25.98%)
   displ. norm   :     0.1627138 α      lambda       -0.1272907E-03
   maximum displ.:     0.0864049 α      in ANC's #6, #4, #11, ...

........................................................................
.............................. CYCLE    8 ..............................
........................................................................

 iter      E             dE          RMSdq      gap      omega  full diag
   1    -49.9658229 -0.499658E+02  0.374E-02    3.12       0.0  T
   2    -49.9658237 -0.807558E-06  0.224E-02    3.12       1.0  T
   3    -49.9658234  0.309705E-06  0.457E-03    3.12       4.1  T
   4    -49.9658238 -0.396044E-06  0.150E-03    3.12      12.6  T
   5    -49.9658239 -0.476188E-07  0.589E-04    3.12      32.1  T
   6    -49.9658239 -0.102297E-08  0.177E-04    3.12     107.0  T
     SCC iter.                  ...        0 min,  0.005 sec
     gradient                   ...        0 min,  0.003 sec
 * total energy  :   -49.4001869 Eh     change       -0.9441693E-04 Eh
   gradient norm :     0.0052247 Eh/α   predicted    -0.6534201E-04 ( -30.79%)
   displ. norm   :     0.1847633 α      lambda       -0.1361329E-03
   maximum displ.:     0.1084597 α      in ANC's #6, #11, #8, ...

........................................................................
.............................. CYCLE    9 ..............................
........................................................................

 iter      E             dE          RMSdq      gap      omega  full diag
   1    -49.9657607 -0.499658E+02  0.415E-02    3.11       0.0  T
   2    -49.9657612 -0.485591E-06  0.248E-02    3.11       1.0  T
   3    -49.9657611  0.420045E-07  0.255E-03    3.11       7.4  T
   4    -49.9657612 -0.121191E-06  0.976E-04    3.11      19.4  T
   5    -49.9657613 -0.863374E-08  0.536E-04    3.11      35.3  T
     SCC iter.                  ...        0 min,  0.003 sec
     gradient                   ...        0 min,  0.003 sec
 * total energy  :   -49.4002866 Eh     change       -0.9977660E-04 Eh
   gradient norm :     0.0049939 Eh/α   predicted    -0.7039346E-04 ( -29.45%)
   displ. norm   :     0.1832579 α      lambda       -0.1321716E-03
   maximum displ.:     0.1120332 α      in ANC's #6, #8, #11, ...

........................................................................
.............................. CYCLE   10 ..............................
........................................................................

 iter      E             dE          RMSdq      gap      omega  full diag
   1    -49.9657152 -0.499657E+02  0.405E-02    3.11       0.0  T
   2    -49.9657157 -0.467345E-06  0.238E-02    3.11       1.0  T
   3    -49.9657155  0.201319E-06  0.410E-03    3.11       4.6  T
   4    -49.9657158 -0.291062E-06  0.114E-03    3.11      16.5  T
   5    -49.9657158 -0.183124E-07  0.541E-04    3.11      35.0  T
   6    -49.9657158 -0.140459E-08  0.141E-04    3.11     134.3  T
     SCC iter.                  ...        0 min,  0.004 sec
     gradient                   ...        0 min,  0.003 sec
 * total energy  :   -49.4003849 Eh     change       -0.9826880E-04 Eh
   gradient norm :     0.0048437 Eh/α   predicted    -0.6830744E-04 ( -30.49%)
   displ. norm   :     0.1990243 α      lambda       -0.1323984E-03
   maximum displ.:     0.1220956 α      in ANC's #6, #8, #11, ...

........................................................................
.............................. CYCLE   11 ..............................
........................................................................

 iter      E             dE          RMSdq      gap      omega  full diag
   1    -49.9655710 -0.499656E+02  0.414E-02    3.11       0.0  T
   2    -49.9655718 -0.761381E-06  0.244E-02    3.11       1.0  T
   3    -49.9655711  0.672196E-06  0.664E-03    3.11       2.8  T
   4    -49.9655719 -0.816940E-06  0.151E-03    3.11      12.5  T
   5    -49.9655720 -0.484039E-07  0.567E-04    3.11      33.3  T
   6    -49.9655720 -0.680828E-09  0.165E-04    3.11     114.3  T
     SCC iter.                  ...        0 min,  0.004 sec
     gradient                   ...        0 min,  0.002 sec
 * total energy  :   -49.4004838 Eh     change       -0.9891654E-04 Eh
   gradient norm :     0.0049842 Eh/α   predicted    -0.6882469E-04 ( -30.42%)
   displ. norm   :     0.2022119 α      lambda       -0.1308097E-03
   maximum displ.:     0.1157981 α      in ANC's #6, #8, #4, ...

........................................................................
.............................. CYCLE   12 ..............................
........................................................................

 iter      E             dE          RMSdq      gap      omega  full diag
   1    -49.9660027 -0.499660E+02  0.416E-02    3.11       0.0  T
   2    -49.9660039 -0.118839E-05  0.248E-02    3.11       1.0  T
   3    -49.9660029  0.101923E-05  0.813E-03    3.11       2.3  T
   4    -49.9660041 -0.121944E-05  0.183E-03    3.11      10.3  T
   5    -49.9660042 -0.834393E-07  0.561E-04    3.11      33.7  T
   6    -49.9660042 -0.421323E-09  0.215E-04    3.11      88.1  T
     SCC iter.                  ...        0 min,  0.004 sec
     gradient                   ...        0 min,  0.003 sec
 * total energy  :   -49.4005775 Eh     change       -0.9370772E-04 Eh
   gradient norm :     0.0046309 Eh/α   predicted    -0.6808751E-04 ( -27.34%)
   displ. norm   :     0.2762873 α      lambda       -0.1111645E-03
   maximum displ.:     0.1756325 α      in ANC's #6, #8, #11, ...

........................................................................
.............................. CYCLE   13 ..............................
........................................................................

 iter      E             dE          RMSdq      gap      omega  full diag
   1    -49.9633176 -0.499633E+02  0.575E-02    3.12       0.0  T
   2    -49.9633191 -0.155209E-05  0.343E-02    3.11       1.0  T
   3    -49.9633186  0.551479E-06  0.618E-03    3.11       3.1  T
   4    -49.9633193 -0.736355E-06  0.218E-03    3.12       8.7  T
   5    -49.9633194 -0.903682E-07  0.886E-04    3.11      21.3  T
   6    -49.9633194 -0.178565E-08  0.238E-04    3.11      79.4  T
     SCC iter.                  ...        0 min,  0.004 sec
     gradient                   ...        0 min,  0.002 sec
 * total energy  :   -49.4005836 Eh     change       -0.6096847E-05 Eh
   gradient norm :     0.0088764 Eh/α   predicted    -0.5982711E-04 ( 881.28%)
   displ. norm   :     0.1231365 α      lambda       -0.2614504E-03
   maximum displ.:     0.0847032 α      in ANC's #4, #7, #9, ...

........................................................................
.............................. CYCLE   14 ..............................
........................................................................

 iter      E             dE          RMSdq      gap      omega  full diag
   1    -49.9676939 -0.499677E+02  0.453E-02    3.12       0.0  T
   2    -49.9676972 -0.333360E-05  0.261E-02    3.12       1.0  T
   3    -49.9676972  0.849293E-07  0.714E-03    3.12       2.6  T
   4    -49.9676975 -0.311355E-06  0.235E-03    3.12       8.0  T
   5    -49.9676976 -0.948341E-07  0.103E-03    3.12      18.4  T
   6    -49.9676976 -0.380589E-08  0.372E-04    3.12      50.8  T
   7    -49.9676976 -0.192764E-08  0.994E-05    3.12     190.1  T
     SCC iter.                  ...        0 min,  0.008 sec
     gradient                   ...        0 min,  0.002 sec
 * total energy  :   -49.4006757 Eh     change       -0.9207106E-04 Eh
   gradient norm :     0.0055911 Eh/α   predicted    -0.1327099E-03 (  44.14%)
   displ. norm   :     0.0527042 α      lambda       -0.5536157E-04
   maximum displ.:     0.0283706 α      in ANC's #6, #8, #11, ...

........................................................................
.............................. CYCLE   15 ..............................
........................................................................

 iter      E             dE          RMSdq      gap      omega  full diag
   1    -49.9666801 -0.499667E+02  0.153E-02    3.12       0.0  T
   2    -49.9666805 -0.395959E-06  0.891E-03    3.12       2.1  T
   3    -49.9666804  0.958884E-07  0.359E-03    3.12       5.3  T
   4    -49.9666805 -0.136202E-06  0.105E-03    3.12      17.9  T
   5    -49.9666806 -0.255511E-07  0.314E-04    3.12      60.2  T
   6    -49.9666806 -0.113502E-09  0.131E-04    3.12     144.3  T
     SCC iter.                  ...        0 min,  0.005 sec
     gradient                   ...        0 min,  0.002 sec
 * total energy  :   -49.4007169 Eh     change       -0.4125302E-04 Eh
   gradient norm :     0.0036171 Eh/α   predicted    -0.2777024E-04 ( -32.68%)
   displ. norm   :     0.1103675 α      lambda       -0.6018894E-04
   maximum displ.:     0.0590928 α      in ANC's #6, #8, #2, ...

........................................................................
.............................. CYCLE   16 ..............................
........................................................................

 iter      E             dE          RMSdq      gap      omega  full diag
   1    -49.9659434 -0.499659E+02  0.251E-02    3.12       0.0  T
   2    -49.9659442 -0.749657E-06  0.147E-02    3.12       1.3  T
   3    -49.9659438  0.396353E-06  0.630E-03    3.12       3.0  T
   4    -49.9659443 -0.527637E-06  0.145E-03    3.12      13.0  T
   5    -49.9659444 -0.527375E-07  0.410E-04    3.12      46.1  T
   6    -49.9659444 -0.105402E-09  0.151E-04    3.12     125.3  T
     SCC iter.                  ...        0 min,  0.004 sec
     gradient                   ...        0 min,  0.002 sec
 * total energy  :   -49.4007558 Eh     change       -0.3883737E-04 Eh
   gradient norm :     0.0028371 Eh/α   predicted    -0.3046148E-04 ( -21.57%)
   displ. norm   :     0.0701793 α      lambda       -0.3081680E-04
   maximum displ.:     0.0379991 α      in ANC's #2, #8, #6, ...

........................................................................
.............................. CYCLE   17 ..............................
........................................................................

 iter      E             dE          RMSdq      gap      omega  full diag
   1    -49.9661268 -0.499661E+02  0.175E-02    3.12       0.0  T
   2    -49.9661271 -0.303130E-06  0.102E-02    3.12       1.9  T
   3    -49.9661269  0.265470E-06  0.450E-03    3.12       4.2  T
   4    -49.9661272 -0.350668E-06  0.849E-04    3.12      22.3  T
   5    -49.9661272 -0.169174E-07  0.275E-04    3.12      68.6  T
     SCC iter.                  ...        0 min,  0.003 sec
     gradient                   ...        0 min,  0.002 sec
 * total energy  :   -49.4007778 Eh     change       -0.2196938E-04 Eh
   gradient norm :     0.0023916 Eh/α   predicted    -0.1548517E-04 ( -29.51%)
   displ. norm   :     0.1207340 α      lambda       -0.3050355E-04
   maximum displ.:     0.0586411 α      in ANC's #8, #2, #6, ...

........................................................................
.............................. CYCLE   18 ..............................
........................................................................

 iter      E             dE          RMSdq      gap      omega  full diag
   1    -49.9661804 -0.499662E+02  0.266E-02    3.12       0.0  T
   2    -49.9661805 -0.152126E-06  0.158E-02    3.12       1.2  T
   3    -49.9661804  0.182098E-06  0.288E-03    3.12       6.6  T
   4    -49.9661806 -0.231134E-06  0.705E-04    3.12      26.8  T
   5    -49.9661806 -0.579204E-08  0.324E-04    3.12      58.3  T
     SCC iter.                  ...        0 min,  0.006 sec
     gradient                   ...        0 min,  0.002 sec
 * total energy  :   -49.4007991 Eh     change       -0.2135804E-04 Eh
   gradient norm :     0.0024943 Eh/α   predicted    -0.1547493E-04 ( -27.55%)
   displ. norm   :     0.0852330 α      lambda       -0.2602922E-04
   maximum displ.:     0.0534879 α      in ANC's #2, #8, #9, ...

........................................................................
.............................. CYCLE   19 ..............................
........................................................................

 iter      E             dE          RMSdq      gap      omega  full diag
   1    -49.9670743 -0.499671E+02  0.224E-02    3.12       0.0  T
   2    -49.9670746 -0.230940E-06  0.131E-02    3.12       1.4  T
   3    -49.9670745  0.394241E-07  0.202E-03    3.12       9.3  T
   4    -49.9670746 -0.768816E-07  0.625E-04    3.12      30.3  T
   5    -49.9670746 -0.398451E-08  0.297E-04    3.12      63.7  T
     SCC iter.                  ...        0 min,  0.003 sec
     gradient                   ...        0 min,  0.002 sec
 * total energy  :   -49.4008146 Eh     change       -0.1545161E-04 Eh
   gradient norm :     0.0021007 Eh/α   predicted    -0.1311364E-04 ( -15.13%)
   displ. norm   :     0.1926250 α      lambda       -0.2747807E-04
   maximum displ.:     0.1030308 α      in ANC's #8, #6, #2, ...

........................................................................
.............................. CYCLE   20 ..............................
........................................................................

 iter      E             dE          RMSdq      gap      omega  full diag
   1    -49.9654947 -0.499655E+02  0.406E-02    3.12       0.0  T
   2    -49.9654954 -0.632504E-06  0.242E-02    3.12       1.0  T
   3    -49.9654950  0.372846E-06  0.492E-03    3.12       3.8  T
   4    -49.9654955 -0.483044E-06  0.138E-03    3.12      13.6  T
   5    -49.9654955 -0.328810E-07  0.585E-04    3.12      32.3  T
   6    -49.9654955 -0.659561E-09  0.179E-04    3.12     105.8  T
     SCC iter.                  ...        0 min,  0.004 sec
     gradient                   ...        0 min,  0.002 sec
 * total energy  :   -49.4008120 Eh     change        0.2606001E-05 Eh
   gradient norm :     0.0039154 Eh/α   predicted    -0.1425272E-04 (-646.92%)
   displ. norm   :     0.0788972 α      lambda       -0.3895912E-04
   maximum displ.:     0.0444242 α      in ANC's #8, #6, #9, ...
 * RMSD in coord.:     0.4196372 α      energy gain  -0.3994681E-01 Eh

generating ANC from model Hessian ...
Using Lindh-Hessian (1995)
 Shifting diagonal of input Hessian by    8.8444858804620774E-003
 Lowest  eigenvalues of input Hessian
    0.000000    0.000000    0.000000    0.000000    0.000000    0.000000
    0.010000    0.012405    0.013808    0.014191    0.014446    0.015836
    0.018086    0.019189    0.021482    0.022667    0.023523    0.026118
 Highest eigenvalues
    2.071714    2.125264    2.188118    2.372975    2.462164    2.540078


........................................................................
.............................. CYCLE   21 ..............................
........................................................................

 iter      E             dE          RMSdq      gap      omega  full diag
   1    -49.9669131 -0.499669E+02  0.187E-02    3.12       0.0  T
   2    -49.9669134 -0.317711E-06  0.109E-02    3.12       1.7  T
   3    -49.9669134  0.957839E-08  0.214E-03    3.12       8.8  T
   4    -49.9669134 -0.309136E-07  0.783E-04    3.12      24.1  T
   5    -49.9669135 -0.121412E-07  0.339E-04    3.12      55.8  T
     SCC iter.                  ...        0 min,  0.003 sec
     gradient                   ...        0 min,  0.002 sec
 * total energy  :   -49.4008304 Eh     change       -0.1840026E-04 Eh
   gradient norm :     0.0010358 Eh/α   predicted     0.0000000E+00 (-100.00%)
   displ. norm   :     0.0236929 α      lambda       -0.3629347E-05
   maximum displ.:     0.0128228 α      in ANC's #5, #4, #6, ...

........................................................................
.............................. CYCLE   22 ..............................
........................................................................

 iter      E             dE          RMSdq      gap      omega  full diag
   1    -49.9669860 -0.499670E+02  0.580E-03    3.12       0.0  T
   2    -49.9669860 -0.327675E-07  0.346E-03    3.12       5.5  T
   3    -49.9669860  0.197487E-07  0.106E-03    3.12      17.9  T
   4    -49.9669860 -0.269934E-07  0.173E-04    3.12     109.2  T
   5    -49.9669860 -0.503853E-09  0.829E-05    3.12     227.9  T
     SCC iter.                  ...        0 min,  0.003 sec
     gradient                   ...        0 min,  0.002 sec
 * total energy  :   -49.4008370 Eh     change       -0.6682743E-05 Eh
   gradient norm :     0.0006195 Eh/α   predicted    -0.2557959E-05 ( -61.72%)
   displ. norm   :     0.1138652 α      lambda       -0.1912765E-04
   maximum displ.:     0.0597126 α      in ANC's #5, #6, #8, ...

........................................................................
.............................. CYCLE   23 ..............................
........................................................................

 iter      E             dE          RMSdq      gap      omega  full diag
   1    -49.9668365 -0.499668E+02  0.239E-02    3.12       0.0  T
   2    -49.9668368 -0.277788E-06  0.142E-02    3.12       1.3  T
   3    -49.9668366  0.176860E-06  0.293E-03    3.12       6.4  T
   4    -49.9668368 -0.223313E-06  0.738E-04    3.12      25.6  T
   5    -49.9668368 -0.101836E-07  0.319E-04    3.12      59.3  T
     SCC iter.                  ...        0 min,  0.004 sec
     gradient                   ...        0 min,  0.003 sec
 * total energy  :   -49.4008550 Eh     change       -0.1791348E-04 Eh
   gradient norm :     0.0013257 Eh/α   predicted    -0.9623980E-05 ( -46.28%)
   displ. norm   :     0.0671741 α      lambda       -0.6697507E-05
   maximum displ.:     0.0339233 α      in ANC's #5, #8, #6, ...

........................................................................
.............................. CYCLE   24 ..............................
........................................................................

 iter      E             dE          RMSdq      gap      omega  full diag
   1    -49.9668861 -0.499669E+02  0.125E-02    3.12       0.0  T
   2    -49.9668861 -0.199704E-07  0.747E-03    3.12       2.5  T
   3    -49.9668861  0.379574E-08  0.655E-04    3.12      28.8  T
   4    -49.9668861 -0.884256E-08  0.293E-04    3.12      64.5  T
     SCC iter.                  ...        0 min,  0.003 sec
     gradient                   ...        0 min,  0.003 sec
 * total energy  :   -49.4008630 Eh     change       -0.8063300E-05 Eh
   gradient norm :     0.0013786 Eh/α   predicted    -0.3355760E-05 ( -58.38%)
   displ. norm   :     0.1329348 α      lambda       -0.1322110E-04
   maximum displ.:     0.0628844 α      in ANC's #8, #5, #6, ...

........................................................................
.............................. CYCLE   25 ..............................
........................................................................

 iter      E             dE          RMSdq      gap      omega  full diag
   1    -49.9667362 -0.499667E+02  0.244E-02    3.12       0.0  T
   2    -49.9667363 -0.625525E-07  0.146E-02    3.12       1.3  T
   3    -49.9667363  0.832341E-08  0.124E-03    3.12      15.3  T
   4    -49.9667363 -0.302465E-07  0.461E-04    3.12      41.0  T
   5    -49.9667363 -0.657700E-09  0.189E-04    3.12     100.2  T
     SCC iter.                  ...        0 min,  0.004 sec
     gradient                   ...        0 min,  0.002 sec
 * total energy  :   -49.4008768 Eh     change       -0.1374271E-04 Eh
   gradient norm :     0.0014130 Eh/α   predicted    -0.6669079E-05 ( -51.47%)
   displ. norm   :     0.1029207 α      lambda       -0.1100610E-04
   maximum displ.:     0.0503786 α      in ANC's #8, #6, #5, ...

........................................................................
.............................. CYCLE   26 ..............................
........................................................................

 iter      E             dE          RMSdq      gap      omega  full diag
   1    -49.9668654 -0.499669E+02  0.196E-02    3.12       0.0  T
   2    -49.9668655 -0.823390E-07  0.118E-02    3.12       1.6  T
   3    -49.9668654  0.470762E-07  0.149E-03    3.12      12.7  T
   4    -49.9668655 -0.650682E-07  0.370E-04    3.12      51.1  T
   5    -49.9668655 -0.150031E-08  0.180E-04    3.12     104.9  T
     SCC iter.                  ...        0 min,  0.003 sec
     gradient                   ...        0 min,  0.003 sec
 * total energy  :   -49.4008886 Eh     change       -0.1187327E-04 Eh
   gradient norm :     0.0013136 Eh/α   predicted    -0.5534079E-05 ( -53.39%)
   displ. norm   :     0.0961072 α      lambda       -0.9529540E-05
   maximum displ.:     0.0475100 α      in ANC's #8, #9, #6, ...

........................................................................
.............................. CYCLE   27 ..............................
........................................................................

 iter      E             dE          RMSdq      gap      omega  full diag
   1    -49.9669054 -0.499669E+02  0.183E-02    3.12       0.0  T
   2    -49.9669055 -0.671129E-07  0.110E-02    3.12       1.7  T
   3    -49.9669055  0.275978E-07  0.122E-03    3.12      15.5  T
   4    -49.9669055 -0.381142E-07  0.420E-04    3.12      45.0  T
   5    -49.9669055 -0.327314E-08  0.164E-04    3.12     115.4  T
     SCC iter.                  ...        0 min,  0.005 sec
     gradient                   ...        0 min,  0.003 sec
 * total energy  :   -49.4008990 Eh     change       -0.1035000E-04 Eh
   gradient norm :     0.0012496 Eh/α   predicted    -0.4796195E-05 ( -53.66%)
   displ. norm   :     0.0709083 α      lambda       -0.6656609E-05
   maximum displ.:     0.0351393 α      in ANC's #9, #8, #4, ...

........................................................................
.............................. CYCLE   28 ..............................
........................................................................

 iter      E             dE          RMSdq      gap      omega  full diag
   1    -49.9671423 -0.499671E+02  0.145E-02    3.12       0.0  T
   2    -49.9671423 -0.641806E-07  0.860E-03    3.12       2.2  T
   3    -49.9671423  0.657273E-08  0.103E-03    3.12      18.3  T
   4    -49.9671423 -0.140307E-07  0.400E-04    3.12      47.2  T
   5    -49.9671423 -0.244263E-08  0.167E-04    3.12     113.2  T
     SCC iter.                  ...        0 min,  0.004 sec
     gradient                   ...        0 min,  0.002 sec
 * total energy  :   -49.4009052 Eh     change       -0.6228358E-05 Eh
   gradient norm :     0.0008794 Eh/α   predicted    -0.3358355E-05 ( -46.08%)
   displ. norm   :     0.1235648 α      lambda       -0.4679844E-05
   maximum displ.:     0.0655374 α      in ANC's #8, #9, #5, ...

........................................................................
.............................. CYCLE   29 ..............................
........................................................................

 iter      E             dE          RMSdq      gap      omega  full diag
   1    -49.9661124 -0.499661E+02  0.240E-02    3.12       0.0  T
   2    -49.9661126 -0.227671E-06  0.143E-02    3.12       1.3  T
   3    -49.9661126 -0.916287E-08  0.148E-03    3.12      12.8  T
   4    -49.9661127 -0.168108E-07  0.507E-04    3.12      37.3  T
   5    -49.9661127 -0.199245E-08  0.271E-04    3.12      69.7  T
     SCC iter.                  ...        0 min,  0.004 sec
     gradient                   ...        0 min,  0.002 sec
 * total energy  :   -49.4008987 Eh     change        0.6543983E-05 Eh
   gradient norm :     0.0026700 Eh/α   predicted    -0.2372594E-05 (-136.26%)
   displ. norm   :     0.0541206 α      lambda       -0.1523359E-04
   maximum displ.:     0.0269853 α      in ANC's #8, #5, #6, ...

........................................................................
.............................. CYCLE   30 ..............................
........................................................................

 iter      E             dE          RMSdq      gap      omega  full diag
   1    -49.9667807 -0.499668E+02  0.112E-02    3.12       0.0  T
   2    -49.9667808 -0.862183E-07  0.661E-03    3.12       2.9  T
   3    -49.9667808 -0.191314E-08  0.100E-03    3.12      18.9  T
   4    -49.9667808 -0.428855E-08  0.353E-04    3.12      53.5  T
   5    -49.9667808 -0.193483E-08  0.170E-04    3.12     111.1  T
     SCC iter.                  ...        0 min,  0.004 sec
     gradient                   ...        0 min,  0.002 sec
 * total energy  :   -49.4009079 Eh     change       -0.9197867E-05 Eh
   gradient norm :     0.0009017 Eh/α   predicted    -0.7640224E-05 ( -16.93%)
   displ. norm   :     0.0178281 α      lambda       -0.2363174E-05
   maximum displ.:     0.0113235 α      in ANC's #6, #11, #5, ...

........................................................................
.............................. CYCLE   31 ..............................
........................................................................

 iter      E             dE          RMSdq      gap      omega  full diag
   1    -49.9671406 -0.499671E+02  0.538E-03    3.12       0.0  T
   2    -49.9671406 -0.314835E-07  0.308E-03    3.12       6.1  T
   3    -49.9671406  0.271823E-08  0.757E-04    3.12      25.0  T
   4    -49.9671406 -0.471010E-08  0.276E-04    3.12      68.5  T
     SCC iter.                  ...        0 min,  0.002 sec
     gradient                   ...        0 min,  0.002 sec
 * total energy  :   -49.4009098 Eh     change       -0.1977685E-05 Eh
   gradient norm :     0.0003748 Eh/α   predicted    -0.1185463E-05 ( -40.06%)
   displ. norm   :     0.0154760 α      lambda       -0.8873299E-06
   maximum displ.:     0.0082106 α      in ANC's #9, #8, #2, ...

   *** GEOMETRY OPTIMIZATION CONVERGED AFTER 31 ITERATIONS ***

------------------------------------------------------------------------
 total energy gain   :        -0.0400447 Eh      -25.1284 kcal/mol
 total RMSD          :         0.4613742 a0        0.2441 Å
 total power (kW/mol):        -3.3915267 (step) -406.9729 (real)
------------------------------------------------------------------------

 ANCopt (total)                0 d,  0 h,  0 min,  0.258 sec
 optimizer setup                ...        0 min,  0.000 sec (  0.037%)
 model hessian                  ...        0 min,  0.009 sec (  3.419%)
 ANC generation                 ...        0 min,  0.002 sec (  0.828%)
 coordinate transformation      ...        0 min,  0.000 sec (  0.089%)
 single point calculation       ...        0 min,  0.239 sec ( 92.502%)
 optimization log               ...        0 min,  0.004 sec (  1.681%)
 hessian update                 ...        0 min,  0.000 sec (  0.122%)
 rational function              ...        0 min,  0.002 sec (  0.907%)

================
 final structure:
================
28
 xtb: 6.6.0 (conda-forge)
C           -2.72719330859311        2.10698482724541       -1.10340302451990
N           -2.08922874796013        0.97604170024933       -0.48691944053454
C           -0.72731428351292        0.74724005175733       -0.39340512503075
C           -0.55933319156672       -0.45412628762613        0.27217247731863
N            0.63127346776309       -1.02000800679480        0.55425425733400
C            1.65738023632772       -0.33542489069825        0.14325301676938
N            1.60398554161864        0.85023692744777       -0.51504906558847
C            0.38585241924787        1.50614524375709       -0.84768891262152
O            0.39831545401328        2.56789754526143       -1.44039101480453
C            2.84047655769581        1.49433926753409       -0.90992663359470
O            2.89508598044588       -0.78387179472534        0.35680075650107
C            2.99466487395433       -2.02156243117540        1.04269060244205
N           -1.78844876428140       -0.94596650101426        0.57772169025598
C           -2.75945814510950       -0.06069391790841        0.10774994420637
O           -3.95700623814623       -0.20262963358288        0.21448211575449
C           -2.09390506691468       -2.16767700871679        1.26922747527762
H           -2.44242748124664        2.17517357107537       -2.15389673340657
H           -3.80274735469007        1.96165229742498       -1.01504217515426
H           -2.43142248361859        3.02919109493331       -0.60167635555714
H            3.45875667753494        1.69012481312164       -0.03476930884735
H            2.56762735442547        2.42990792300576       -1.39642663990927
H            3.39232862652629        0.85857945659163       -1.60147051714460
H            4.05953584524817       -2.22258378789190        1.13369495419793
H            2.53041097907964       -1.95207964291348        2.02755890986691
H            2.50085945164024       -2.81333700725260        0.47724709954973
H           -3.17918473893924       -2.25663772355866        1.29591277691326
H           -1.66071425778068       -3.01794540128157        0.74216515337130
H           -1.69836940316145       -2.13897068426462        2.28523371695488

 Bond Distances (Angstroems)
 ---------------------------
C1-N2=1.4374         C1-H17=1.0905        C1-H18=1.0889        C1-H19=1.0907        N2-C1=1.4374         N2-C3=1.3842         
N2-C14=1.3703        C3-N2=1.3842         C3-C4=1.3837         C3-C8=1.4218         C4-C3=1.3837         C4-N5=1.3481         
C4-N13=1.3587        N5-C4=1.3481         N5-C6=1.3002         C6-N5=1.3002         C6-N7=1.3572         C6-O11=1.3337        
N7-C6=1.3572         N7-C8=1.4229         N7-C10=1.4490        C8-C3=1.4218         C8-N7=1.4229         C8-O9=1.2160         
O9-C8=1.2160         C10-N7=1.4490        C10-H20=1.0893       C10-H21=1.0892       C10-H22=1.0895       O11-C6=1.3337        
O11-C12=1.4185       C12-O11=1.4185       C12-H23=1.0875       C12-H24=1.0910       C12-H25=1.0911       N13-C4=1.3587        
N13-C14=1.3955       N13-C16=1.4367       C14-N2=1.3703        C14-N13=1.3955       C14-O15=1.2106       O15-C14=1.2106       
C16-N13=1.4367       C16-H26=1.0892       C16-H27=1.0901       C16-H28=1.0907       H17-C1=1.0905        H18-C1=1.0889        
H19-C1=1.0907        H20-C10=1.0893       H21-C10=1.0892       H22-C10=1.0895       H23-C12=1.0875       H24-C12=1.0910       
H25-C12=1.0911       H26-C16=1.0892       H27-C16=1.0901       H28-C16=1.0907       
 C  H  Rav=1.0898 sigma=0.0010  Rmin=1.0875  Rmax=1.0911    12
 C  C  Rav=1.4027 sigma=0.0191  Rmin=1.3837  Rmax=1.4218     2
 N  C  Rav=1.3873 sigma=0.0439  Rmin=1.3002  Rmax=1.4490    11
 O  C  Rav=1.2947 sigma=0.0868  Rmin=1.2106  Rmax=1.4185     4

 selected bond angles (degree)
 --------------------
H17-C1-N2=110.27               H18-C1-N2=107.37               H18-C1-H17=110.15              H19-C1-N2=110.34               
H19-C1-H17=108.63              H19-C1-H18=110.08              C3-N2-C1=126.57                C14-N2-C1=124.36               
C14-N2-C3=109.08               C4-C3-N2=107.19                C8-C3-N2=131.34                C8-C3-C4=121.47                
N5-C4-C3=124.91                N13-C4-C3=108.22               N13-C4-N5=126.87               C6-N5-C4=114.20                
N7-C6-N5=125.61                O11-C6-N5=120.32               O11-C6-N7=114.07               C8-N7-C6=123.35                
C10-N7-C6=119.14               C10-N7-C8=117.51               N7-C8-C3=110.46                O9-C8-C3=129.04                
O9-C8-N7=120.51                H20-C10-N7=110.20              H21-C10-N7=106.84              H21-C10-H20=110.28             
H22-C10-N7=110.23              H22-C10-H20=109.11             H22-C10-H21=110.16             

 selected dihedral angles (degree)
 ---------------------------------
C3-N2-C1-H17= 59.01           C3-N2-C1-H18=179.03           C3-N2-C1-H19=299.01           C14-N2-C1-H17=239.11          
C14-N2-C1-H18=359.13          C14-N2-C1-H19=119.11          C4-C3-N2-C1=180.08            C4-C3-N2-C14=  0.00           
C8-C3-N2-C1=359.93            C8-C3-N2-C14=179.84           N5-C4-C3-N2=179.84            N5-C4-C3-C8=359.97            
N13-C4-C3-N2=359.98           N13-C4-C3-C8=180.11           C6-N5-C4-C3=  0.00            C6-N5-C4-N13=179.83           
N7-C6-N5-C4=  0.08            O11-C6-N5-C4=180.07           C8-N7-C6-N5=359.86            C8-N7-C6-O11=179.87           
C10-N7-C6-N5=180.01           C10-N7-C6-O11=  0.00          N7-C8-C3-N2=180.16            N7-C8-C3-C4=  0.00            
O9-C8-C3-N2=  0.18            O9-C8-C3-C4=180.00            C3-C8-N7-C6=  0.09            C3-C8-N7-C10=179.95           
O9-C8-N7-C6=180.08            O9-C8-N7-C10=359.93           H20-C10-N7-C6=301.08          H20-C10-N7-C8=121.22          
H21-C10-N7-C6=181.26          H21-C10-N7-C8=  1.39          H22-C10-N7-C6= 61.57          H22-C10-N7-C8=241.70          
           -------------------------------------------------
          |                Final Singlepoint                |
           -------------------------------------------------

          ...................................................
          :                      SETUP                      :
          :.................................................:
          :  # basis functions                  76          :
          :  # atomic orbitals                  76          :
          :  # shells                           44          :
          :  # electrons                        86          :
          :  max. iterations                   250          :
          :  Hamiltonian                  GFN2-xTB          :
          :  restarted?                      false          :
          :  GBSA solvation                  false          :
          :  PC potential                    false          :
          :  electronic temp.          300.0000000     K    :
          :  accuracy                    1.0000000          :
          :  -> integral cutoff          0.2500000E+02      :
          :  -> integral neglect         0.1000000E-07      :
          :  -> SCF convergence          0.1000000E-05 Eh   :
          :  -> wf. convergence          0.1000000E-03 e    :
          :  Broyden damping             0.4000000          :
          ...................................................

 iter      E             dE          RMSdq      gap      omega  full diag
   1    -49.9671407 -0.499671E+02  0.106E-04    3.12       0.0  T
   2    -49.9671407 -0.218279E-10  0.623E-05    3.12     303.4  T
   3    -49.9671407  0.419220E-11  0.379E-05    3.12     498.1  T

   *** convergence criteria satisfied after 3 iterations ***

         #    Occupation            Energy/Eh            Energy/eV
      -------------------------------------------------------------
         1        2.0000           -0.7595218             -20.6676
       ...           ...                  ...                  ...
        37        2.0000           -0.4484486             -12.2029
        38        2.0000           -0.4344971             -11.8233
        39        2.0000           -0.4198873             -11.4257
        40        2.0000           -0.4162142             -11.3258
        41        2.0000           -0.4150937             -11.2953
        42        2.0000           -0.4055833             -11.0365
        43        2.0000           -0.3663207              -9.9681 (HOMO)
        44                         -0.2517735              -6.8511 (LUMO)
        45                         -0.2343464              -6.3769
        46                         -0.1755827              -4.7778
        47                         -0.1180509              -3.2123
        48                         -0.0420200              -1.1434
       ...                                ...                  ...
        76                          0.7011999              19.0806
      -------------------------------------------------------------
                  HL-Gap            0.1145473 Eh            3.1170 eV
             Fermi-level           -0.3090471 Eh           -8.4096 eV

 SCC (total)                   0 d,  0 h,  0 min,  0.006 sec
 SCC setup                      ...        0 min,  0.000 sec (  1.604%)
 Dispersion                     ...        0 min,  0.000 sec (  1.923%)
 classical contributions        ...        0 min,  0.000 sec (  0.730%)
 integral evaluation            ...        0 min,  0.001 sec ( 13.761%)
 iterations                     ...        0 min,  0.002 sec ( 34.590%)
 molecular gradient             ...        0 min,  0.003 sec ( 45.146%)
 printout                       ...        0 min,  0.000 sec (  2.029%)

         :::::::::::::::::::::::::::::::::::::::::::::::::::::
         ::                     SUMMARY                     ::
         :::::::::::::::::::::::::::::::::::::::::::::::::::::
         :: total energy             -49.400909844503 Eh    ::
         :: gradient norm              0.000375723603 Eh/a0 ::
         :: HOMO-LUMO gap              3.116989364289 eV    ::
         ::.................................................::
         :: SCC energy               -49.967140651461 Eh    ::
         :: -> isotropic ES            0.102336755207 Eh    ::
         :: -> anisotropic ES          0.000336589616 Eh    ::
         :: -> anisotropic XC          0.010874345352 Eh    ::
         :: -> dispersion             -0.027386023723 Eh    ::
         :: repulsion energy           0.566127658824 Eh    ::
         :: add. restraining           0.000000000000 Eh    ::
         :: total charge               0.000000000000 e     ::
         :::::::::::::::::::::::::::::::::::::::::::::::::::::

           -------------------------------------------------
          |                Property Printout                |
           -------------------------------------------------

    * Orbital Energies and Occupations

         #    Occupation            Energy/Eh            Energy/eV
      -------------------------------------------------------------
         1        2.0000           -0.7595218             -20.6676
       ...           ...                  ...                  ...
        31        2.0000           -0.4978709             -13.5478
        32        2.0000           -0.4960513             -13.4982
        33        2.0000           -0.4854434             -13.2096
        34        2.0000           -0.4822727             -13.1233
        35        2.0000           -0.4812882             -13.0965
        36        2.0000           -0.4760222             -12.9532
        37        2.0000           -0.4484486             -12.2029
        38        2.0000           -0.4344971             -11.8233
        39        2.0000           -0.4198873             -11.4257
        40        2.0000           -0.4162142             -11.3258
        41        2.0000           -0.4150937             -11.2953
        42        2.0000           -0.4055833             -11.0365
        43        2.0000           -0.3663207              -9.9681 (HOMO)
        44                         -0.2517735              -6.8511 (LUMO)
        45                         -0.2343464              -6.3769
        46                         -0.1755827              -4.7778
        47                         -0.1180509              -3.2123
        48                         -0.0420200              -1.1434
        49                         -0.0188155              -0.5120
        50                          0.0154734               0.4211
        51                          0.0301837               0.8213
        52                          0.0954023               2.5960
        53                          0.1004220               2.7326
        54                          0.1138575               3.0982
       ...                                ...                  ...
        76                          0.7011999              19.0806
      -------------------------------------------------------------
                  HL-Gap            0.1145473 Eh            3.1170 eV
             Fermi-level           -0.3090471 Eh           -8.4096 eV

     #   Z          covCN         q      C6AA      α(0)
     1   6 C        3.689    -0.045    21.569     6.647
     2   7 N        2.820    -0.070    22.600     7.061
     3   6 C        3.050    -0.037    28.869     8.812
     4   6 C        3.084     0.125    25.175     8.225
     5   7 N        1.832    -0.324    29.256     8.015
     6   6 C        2.850     0.289    22.115     7.707
     7   7 N        2.749    -0.098    23.163     7.148
     8   6 C        2.769     0.258    22.649     7.794
     9   8 O        0.857    -0.438    22.460     6.354
    10   6 C        3.702    -0.050    21.623     6.649
    11   8 O        1.707    -0.241    17.998     5.728
    12   6 C        3.661     0.022    20.472     6.492
    13   7 N        2.824    -0.081    22.809     7.093
    14   6 C        2.879     0.302    21.888     7.670
    15   8 O        0.857    -0.459    22.898     6.416
    16   6 C        3.689    -0.046    21.584     6.649
    17   1 H        0.924     0.070     2.087     2.259
    18   1 H        0.925     0.083     1.944     2.181
    19   1 H        0.924     0.069     2.095     2.263
    20   1 H        0.925     0.067     2.123     2.278
    21   1 H        0.925     0.102     1.764     2.077
    22   1 H        0.925     0.066     2.127     2.281
    23   1 H        0.925     0.078     1.996     2.210
    24   1 H        0.924     0.068     2.105     2.269
    25   1 H        0.924     0.068     2.109     2.271
    26   1 H        0.925     0.090     1.877     2.143
    27   1 H        0.925     0.066     2.135     2.285
    28   1 H        0.924     0.065     2.145     2.291

 Mol. C6AA /au·bohr⁶  :       8730.571025
 Mol. C8AA /au·bohr⁸  :     197546.563436
 Mol. α(0) /au        :        141.266471


Wiberg/Mayer (AO) data.
largest (>0.10) Wiberg bond orders for each atom

 ---------------------------------------------------------------------------
     #   Z sym  total        # sym  WBO       # sym  WBO       # sym  WBO
 ---------------------------------------------------------------------------
     1   6 C    3.955 --     2 N    0.994    18 H    0.976    17 H    0.974
                            19 H    0.974
     2   7 N    3.554 --    14 C    1.157     3 C    1.108     1 C    0.994
                            15 O    0.159
     3   6 C    3.945 --     4 C    1.351     8 C    1.158     2 N    1.108
     4   6 C    3.968 --     3 C    1.351     5 N    1.215    13 N    1.181
     5   7 N    3.009 --     6 C    1.453     4 C    1.215
     6   6 C    3.939 --     5 N    1.453     7 N    1.209    11 O    1.116
     7   7 N    3.570 --     6 C    1.209     8 C    1.034    10 C    0.984
                             9 O    0.139
     8   6 C    3.958 --     9 O    1.633     3 C    1.158     7 N    1.034
     9   8 O    1.997 --     8 C    1.633     7 N    0.139
    10   6 C    3.948 --     7 N    0.984    20 H    0.974    22 H    0.974
                            21 H    0.968
    11   8 O    2.278 --     6 C    1.116    12 C    0.956
    12   6 C    3.917 --    23 H    0.980    25 H    0.977    24 H    0.977
                            11 O    0.956
    13   7 N    3.562 --     4 C    1.181    14 C    1.080    16 C    0.994
                            15 O    0.134
    14   6 C    3.958 --    15 O    1.605     2 N    1.157    13 N    1.080
    15   8 O    1.965 --    14 C    1.605     2 N    0.159    13 N    0.134
    16   6 C    3.955 --    13 N    0.994    27 H    0.975    26 H    0.975
                            28 H    0.975
    17   1 H    0.994 --     1 C    0.974
    18   1 H    0.992 --     1 C    0.976
    19   1 H    0.994 --     1 C    0.974
    20   1 H    0.994 --    10 C    0.974
    21   1 H    0.989 --    10 C    0.968
    22   1 H    0.994 --    10 C    0.974
    23   1 H    0.993 --    12 C    0.980
    24   1 H    0.995 --    12 C    0.977
    25   1 H    0.995 --    12 C    0.977
    26   1 H    0.991 --    16 C    0.975
    27   1 H    0.995 --    16 C    0.975
    28   1 H    0.995 --    16 C    0.975
 ---------------------------------------------------------------------------

Topologies differ in total number of bonds
Writing topology from bond orders to xtbtopo.mol

molecular dipole:
                 x           y           z       tot (Debye)
 q only:        1.767      -1.149       0.592
   full:        1.934      -1.112       0.569       5.851
molecular quadrupole (traceless):
                xx          xy          yy          xz          yz          zz
 q only:       -3.799      -5.261       3.519       3.021      -2.333       0.280
  q+dip:       -6.996      -5.049       2.243       3.134       2.282       4.753
   full:       -7.663      -5.322       2.338       3.328       2.684       5.324

           -------------------------------------------------
          |                Geometry Summary                 |
           -------------------------------------------------

      molecular mass/u    :      224.2169397
   center of mass at/Å    :       -0.1881121       0.1376405      -0.0711497
  moments of inertia/u·Å² :        0.5893675E+03   0.1121202E+04   0.1697877E+04
rotational constants/cm⁻¹ :        0.2860292E-01   0.1503532E-01   0.9928656E-02

 * 29 selected distances

     #   Z          #   Z                                           value/Å
     1   6 C        2   7 N                                       1.4373877
     2   7 N        3   6 C                                       1.3841627
     3   6 C        4   6 C                                       1.3836519
     4   6 C        5   7 N                                       1.3480863
     5   7 N        6   6 C                                       1.3001813
     6   6 C        7   7 N                                       1.3572056
     3   6 C        8   6 C                                       1.4217775
     7   7 N        8   6 C                                       1.4229243
     8   6 C        9   8 O                                       1.2160466
     7   7 N       10   6 C                                       1.4490364 (max)
     6   6 C       11   8 O                                       1.3336503
    11   8 O       12   6 C                                       1.4185342
     4   6 C       13   7 N                                       1.3586731
     2   7 N       14   6 C                                       1.3702774
    13   7 N       14   6 C                                       1.3955073
    14   6 C       15   8 O                                       1.2106441
    13   7 N       16   6 C                                       1.4366839
     1   6 C       17   1 H                                       1.0905405
     1   6 C       18   1 H                                       1.0889196
     1   6 C       19   1 H                                       1.0907221
    10   6 C       20   1 H                                       1.0892671
    10   6 C       21   1 H                                       1.0892281
    10   6 C       22   1 H                                       1.0894790
    12   6 C       23   1 H                                       1.0874933 (min)
    12   6 C       24   1 H                                       1.0910203
    12   6 C       25   1 H                                       1.0910900
    16   6 C       26   1 H                                       1.0892467
    16   6 C       27   1 H                                       1.0901401
    16   6 C       28   1 H                                       1.0906610

 * 4 distinct bonds (by element types)

   Z      Z             #   av. dist./Å        max./Å        min./Å
   1 H    6 C          12     1.0898173     1.0910900     1.0874933
   6 C    6 C           2     1.4027147     1.4217775     1.3836519
   6 C    7 N          11     1.3872842     1.4490364     1.3001813
   6 C    8 O           4     1.2947188     1.4185342     1.2106441


optimized geometry written to: xtbopt.xyz


           -------------------------------------------------
          | TOTAL ENERGY              -49.400909844503 Eh   |
          | GRADIENT NORM               0.000375723603 Eh/α |
          | HOMO-LUMO GAP               3.116989364289 eV   |
           -------------------------------------------------
########################################################################
[WARNING] Runtime exception occurred
-2- restart_readRestart: Dimension missmatch in restart file.
-1- restart_readRestart: Number of electron missmatch in restart file.
########################################################################

------------------------------------------------------------------------
 * finished run on 2024/09/20 at 14:46:26.085     
------------------------------------------------------------------------
 total:
 * wall-time:     0 d,  0 h,  0 min,  0.476 sec
 *  cpu-time:     0 d,  0 h,  0 min,  3.664 sec
 * ratio c/w:     7.699 speedup
 SCF:
 * wall-time:     0 d,  0 h,  0 min,  0.021 sec
 *  cpu-time:     0 d,  0 h,  0 min,  0.145 sec
 * ratio c/w:     6.829 speedup
 ANC optimizer:
 * wall-time:     0 d,  0 h,  0 min,  0.265 sec
 *  cpu-time:     0 d,  0 h,  0 min,  2.083 sec
 * ratio c/w:     7.864 speedup

