      -----------------------------------------------------------      
     |                   =====================                   |     
     |                           x T B                           |     
     |                   =====================                   |     
     |                         S. Grimme                         |     
     |          Mulliken Center for Theoretical Chemistry        |     
     |                    University of Bonn                     |     
      -----------------------------------------------------------      

   * xtb version 6.6.0 (conda-forge) compiled by 'runner@Mac-1676020848589.local' on 2023-02-10

   xtb is free software: you can redistribute it and/or modify it under
   the terms of the GNU Lesser General Public License as published by
   the Free Software Foundation, either version 3 of the License, or
   (at your option) any later version.
   
   xtb is distributed in the hope that it will be useful,
   but WITHOUT ANY WARRANTY; without even the implied warranty of
   MERCHANTABILITY or FITNESS FOR A PARTICULAR PURPOSE.  See the
   GNU Lesser General Public License for more details.
   
   Cite this work as:
   * C. Bannwarth, E. Caldeweyher, S. Ehlert, A. Hansen, P. Pracht,
     J. Seibert, S. Spicher, S. Grimme, WIREs Comput. Mol. Sci., 2020, 11,
     e01493. DOI: 10.1002/wcms.1493
   
   for GFN2-xTB:
   * C. Bannwarth, S. Ehlert and S. Grimme., J. Chem. Theory Comput., 2019,
     15, 1652-1671. DOI: 10.1021/acs.jctc.8b01176
   for GFN1-xTB:
   * S. Grimme, C. Bannwarth, P. Shushkov, J. Chem. Theory Comput., 2017,
     13, 1989-2009. DOI: 10.1021/acs.jctc.7b00118
   for GFN0-xTB:
   * P. Pracht, E. Caldeweyher, S. Ehlert, S. Grimme, ChemRxiv, 2019, preprint.
     DOI: 10.26434/chemrxiv.8326202.v1
   for GFN-FF:
   * S. Spicher and S. Grimme, Angew. Chem. Int. Ed., 2020, 59, 15665-15673.
     DOI: 10.1002/anie.202004239
   
   for ALPB and GBSA implicit solvation:
   * S. Ehlert, M. Stahn, S. Spicher, S. Grimme, J. Chem. Theory Comput.,
     2021, 17, 4250-4261. DOI: 10.1021/acs.jctc.1c00471
   
   for DFT-D4:
   * E. Caldeweyher, C. Bannwarth and S. Grimme, J. Chem. Phys., 2017,
     147, 034112. DOI: 10.1063/1.4993215
   * E. Caldeweyher, S. Ehlert, A. Hansen, H. Neugebauer, S. Spicher,
     C. Bannwarth and S. Grimme, J. Chem. Phys., 2019, 150, 154122.
     DOI: 10.1063/1.5090222
   * E. Caldeweyher, J.-M. Mewes, S. Ehlert and S. Grimme, Phys. Chem. Chem. Phys.
     2020, 22, 8499-8512. DOI: 10.1039/D0CP00502A
   
   for sTDA-xTB:
   * S. Grimme and C. Bannwarth, J. Chem. Phys., 2016, 145, 054103.
     DOI: 10.1063/1.4959605
   
   in the mass-spec context:
   * V. Asgeirsson, C. Bauer and S. Grimme, Chem. Sci., 2017, 8, 4879.
     DOI: 10.1039/c7sc00601b
   * J. Koopman and S. Grimme, ACS Omega 2019, 4, 12, 15120-15133.
     DOI: 10.1021/acsomega.9b02011
   
   for metadynamics refer to:
   * S. Grimme, J. Chem. Theory Comput., 2019, 155, 2847-2862
     DOI: 10.1021/acs.jctc.9b00143
   
   for SPH calculations refer to:
   * S. Spicher and S. Grimme, J. Chem. Theory Comput., 2021, 17, 1701-1714
     DOI: 10.1021/acs.jctc.0c01306
   
   with help from (in alphabetical order)
   P. Atkinson, C. Bannwarth, F. Bohle, G. Brandenburg, E. Caldeweyher
   M. Checinski, S. Dohm, S. Ehlert, S. Ehrlich, I. Gerasimov, C. Hölzer
   A. Katbashev, J. Koopman, C. Lavigne, S. Lehtola, F. März, M. Müller,
   F. Musil, H. Neugebauer, J. Pisarek, C. Plett, P. Pracht, F. Pultar,
   J. Seibert, P. Shushkov, S. Spicher, M. Stahn, M. Steiner, T. Strunk,
   J. Stückrath, T. Rose, and J. Unsleber
   
 * started run on 2024/09/07 at 00:23:13.001     

           -------------------------------------------------
          |                Calculation Setup                |
           -------------------------------------------------

          program call               : xtb THC.xyz --opt --alpb water --gfn2
          coordinate file            : THC.xyz
          omp threads                :                     8

   ID    Z sym.   atoms
    1    6 C      1-16, 18-22
    2    8 O      17, 23
    3    1 H      24-53

           -------------------------------------------------
          |                 G F N 2 - x T B                 |
           -------------------------------------------------

        Reference                      10.1021/acs.jctc.8b01176
      * Hamiltonian:
        H0-scaling (s, p, d)           1.850000    2.230000    2.230000
        zeta-weighting                 0.500000
      * Dispersion:
        s8                             2.700000
        a1                             0.520000
        a2                             5.000000
        s9                             5.000000
      * Repulsion:
        kExp                           1.500000    1.000000
        rExp                           1.000000
      * Coulomb:
        alpha                          2.000000
        third order                    shell-resolved
        anisotropic                    true
        a3                             3.000000
        a5                             4.000000
        cn-shift                       1.200000
        cn-exp                         4.000000
        max-rad                        5.000000

      * Solvation model:               ALPB
        Solvent                        water
        Parameter file                 internal GFN2-xTB/ALPB
        Dielectric constant                8.0200E+01
        Reference state                gsolv [1 M gas/solution]
        Free energy shift                  1.0808E-03 Eh       6.7819E-01 kcal/mol
        Temperature                        2.9815E+02 K
        Density                            1.0000E+00 kg/L
        Solvent mass                       1.8000E+01 g/mol
        Interaction kernel             P16
        Born radius scaling (c1)           1.4744E+00
        Born radii integrator          GBOBC
        Born offset                        0.0000E+00 a0       0.0000E+00 AA
        H-bond correction              true
        Ion screening                  false
        Surface tension                    1.0000E-05 Eh       1.5569E+01 dyn/cm
        Grid points                               230 per atom
q/qsh data taken from xtbrestart
CAMM data taken from xtbrestart

          ...................................................
          :                      SETUP                      :
          :.................................................:
          :  # basis functions                 122          :
          :  # atomic orbitals                 122          :
          :  # shells                           76          :
          :  # electrons                       126          :
          :  max. iterations                   250          :
          :  Hamiltonian                  GFN2-xTB          :
          :  restarted?                       true          :
          :  GBSA solvation                   true          :
          :  PC potential                    false          :
          :  electronic temp.          300.0000000     K    :
          :  accuracy                    1.0000000          :
          :  -> integral cutoff          0.2500000E+02      :
          :  -> integral neglect         0.1000000E-07      :
          :  -> SCF convergence          0.1000000E-05 Eh   :
          :  -> wf. convergence          0.1000000E-03 e    :
          :  Broyden damping             0.4000000          :
          ...................................................

 iter      E             dE          RMSdq      gap      omega  full diag
   1    -69.2966871 -0.692967E+02  0.343E+00    4.03       0.0  T
   2    -69.3058430 -0.915593E-02  0.201E+00    3.92       1.0  T
   3    -69.3009054  0.493759E-02  0.464E-01    3.93       1.0  T
   4    -69.3083461 -0.744066E-02  0.157E-01    3.96       1.0  T
   5    -69.3087601 -0.414053E-03  0.809E-02    3.96       1.0  T
   6    -69.3088147 -0.545995E-04  0.395E-02    3.96       1.0  T
   7    -69.3088447 -0.299944E-04  0.103E-02    3.96       1.3  T
   8    -69.3088459 -0.119327E-05  0.522E-03    3.96       2.6  T
   9    -69.3088463 -0.384652E-06  0.273E-03    3.96       5.0  T
  10    -69.3088464 -0.110657E-06  0.124E-03    3.96      11.1  T
  11    -69.3088464 -0.151333E-07  0.490E-04    3.96      28.0  T
  12    -69.3088464 -0.352729E-08  0.211E-04    3.96      65.1  T

   *** convergence criteria satisfied after 12 iterations ***

         #    Occupation            Energy/Eh            Energy/eV
      -------------------------------------------------------------
         1        2.0000           -0.6984905             -19.0069
       ...           ...                  ...                  ...
        57        2.0000           -0.4170132             -11.3475
        58        2.0000           -0.4117431             -11.2041
        59        2.0000           -0.4081461             -11.1062
        60        2.0000           -0.4028191             -10.9613
        61        2.0000           -0.3744022             -10.1880
        62        2.0000           -0.3692130             -10.0468
        63        2.0000           -0.3656486              -9.9498 (HOMO)
        64                         -0.2200032              -5.9866 (LUMO)
        65                         -0.2094971              -5.7007
        66                         -0.1990762              -5.4171
        67                         -0.1037986              -2.8245
        68                         -0.0341275              -0.9287
       ...                                ...                  ...
       122                          0.6101020              16.6017
      -------------------------------------------------------------
                  HL-Gap            0.1456454 Eh            3.9632 eV
             Fermi-level           -0.2928259 Eh           -7.9682 eV

 SCC (total)                   0 d,  0 h,  0 min,  0.145 sec
 SCC setup                      ...        0 min,  0.018 sec ( 12.588%)
 Dispersion                     ...        0 min,  0.004 sec (  2.547%)
 classical contributions        ...        0 min,  0.002 sec (  1.194%)
 integral evaluation            ...        0 min,  0.006 sec (  4.111%)
 iterations                     ...        0 min,  0.093 sec ( 64.319%)
 molecular gradient             ...        0 min,  0.019 sec ( 13.417%)
 printout                       ...        0 min,  0.003 sec (  1.790%)

         :::::::::::::::::::::::::::::::::::::::::::::::::::::
         ::                     SUMMARY                     ::
         :::::::::::::::::::::::::::::::::::::::::::::::::::::
         :: total energy             -68.423777888495 Eh    ::
         :: total w/o Gsasa/hb       -68.419192557414 Eh    ::
         :: gradient norm              0.097745126565 Eh/a0 ::
         :: HOMO-LUMO gap              3.963213201255 eV    ::
         ::.................................................::
         :: SCC energy               -69.308846407859 Eh    ::
         :: -> isotropic ES            0.057454161407 Eh    ::
         :: -> anisotropic ES          0.015279767521 Eh    ::
         :: -> anisotropic XC          0.031136482457 Eh    ::
         :: -> dispersion             -0.052855158757 Eh    ::
         :: -> Gsolv                  -0.010983743596 Eh    ::
         ::    -> Gelec               -0.006398412514 Eh    ::
         ::    -> Gsasa               -0.000844315038 Eh    ::
         ::    -> Ghb                 -0.004821775742 Eh    ::
         ::    -> Gshift               0.001080759698 Eh    ::
         :: repulsion energy           0.884517198696 Eh    ::
         :: add. restraining           0.000000000000 Eh    ::
         :: total charge              -0.000000000000 e     ::
         :::::::::::::::::::::::::::::::::::::::::::::::::::::

      ----------------------------------------------------------- 
     |                   =====================                   |
     |                        A N C O P T                        |
     |                   =====================                   |
     |               Approximate Normal Coordinate               |
     |                Rational Function Optimizer                |
      ----------------------------------------------------------- 

          ...................................................
          :                      SETUP                      :
          :.................................................:
          :   optimization level            normal          :
          :   max. optcycles                   200          :
          :   ANC micro-cycles                  20          :
          :   degrees of freedom               153          :
          :.................................................:
          :   RF solver                   davidson          :
          :   write xtbopt.log                true          :
          :   linear?                        false          :
          :   energy convergence         0.5000000E-05 Eh   :
          :   grad. convergence          0.1000000E-02 Eh/α :
          :   maxmium RF displ.          1.0000000          :
          :   Hlow (freq-cutoff)         0.1000000E-01      :
          :   Hmax (freq-cutoff)         5.0000000          :
          :   S6 in model hess.         20.0000000          :
          ...................................................

generating ANC from model Hessian ...
Using Lindh-Hessian (1995)
 Shifting diagonal of input Hessian by    9.8278679353084944E-003
 Lowest  eigenvalues of input Hessian
    0.000000    0.000000    0.000000    0.000000    0.000000    0.000000
    0.010000    0.010078    0.010749    0.010951    0.011061    0.011552
    0.011793    0.012524    0.013517    0.014525    0.014813    0.015956
 Highest eigenvalues
    1.653399    1.673753    1.784626    1.809844    1.952145    1.971717


........................................................................
.............................. CYCLE    1 ..............................
........................................................................

 iter      E             dE          RMSdq      gap      omega  full diag
   1    -69.3088464 -0.693088E+02  0.113E-04    3.96       0.0  T
   2    -69.3088464 -0.895568E-10  0.737E-05    3.96     186.3  T
   3    -69.3088464 -0.163709E-10  0.494E-05    3.96     278.1  T
     SCC iter.                  ...        0 min,  0.033 sec
     gradient                   ...        0 min,  0.016 sec
 * total energy  :   -68.4237779 Eh     change       -0.4664997E-09 Eh
   gradient norm :     0.0977450 Eh/α   predicted     0.0000000E+00 (-100.00%)
   displ. norm   :     0.3738663 α      lambda       -0.2393373E-01
   maximum displ.:     0.0986884 α      in ANC's #30, #67, #31, ...

........................................................................
.............................. CYCLE    2 ..............................
........................................................................

 iter      E             dE          RMSdq      gap      omega  full diag
   1    -69.4002004 -0.694002E+02  0.194E-01    4.06       0.0  T
   2    -69.4003819 -0.181505E-03  0.111E-01    4.08       1.0  T
   3    -69.4003593  0.226225E-04  0.537E-02    4.07       1.0  T
   4    -69.4004076 -0.483288E-04  0.146E-02    4.08       1.0  T
   5    -69.4004115 -0.388479E-05  0.530E-03    4.08       2.6  T
   6    -69.4004120 -0.444604E-06  0.310E-03    4.08       4.4  T
   7    -69.4004121 -0.122379E-06  0.118E-03    4.08      11.7  T
   8    -69.4004121 -0.222282E-07  0.502E-04    4.08      27.4  T
   9    -69.4004121 -0.433006E-08  0.275E-04    4.08      49.9  T
     SCC iter.                  ...        0 min,  0.070 sec
     gradient                   ...        0 min,  0.019 sec
 * total energy  :   -68.4401858 Eh     change       -0.1640791E-01 Eh
   gradient norm :     0.0385339 Eh/α   predicted    -0.1364237E-01 ( -16.85%)
   displ. norm   :     0.3684163 α      lambda       -0.7265886E-02
   maximum displ.:     0.1247530 α      in ANC's #30, #14, #13, ...

........................................................................
.............................. CYCLE    3 ..............................
........................................................................

 iter      E             dE          RMSdq      gap      omega  full diag
   1    -69.4455970 -0.694456E+02  0.126E-01    4.13       0.0  T
   2    -69.4456881 -0.910664E-04  0.735E-02    4.15       1.0  T
   3    -69.4456861  0.201699E-05  0.419E-02    4.14       1.0  T
   4    -69.4457116 -0.255587E-04  0.918E-03    4.15       1.5  T
   5    -69.4457128 -0.118162E-05  0.426E-03    4.15       3.2  T
   6    -69.4457133 -0.537018E-06  0.195E-03    4.15       7.0  T
   7    -69.4457134 -0.201333E-07  0.942E-04    4.15      14.6  T
   8    -69.4457134 -0.167106E-07  0.401E-04    4.15      34.2  T
     SCC iter.                  ...        0 min,  0.038 sec
     gradient                   ...        0 min,  0.013 sec
 * total energy  :   -68.4446074 Eh     change       -0.4421580E-02 Eh
   gradient norm :     0.0122913 Eh/α   predicted    -0.4129447E-02 (  -6.61%)
   displ. norm   :     0.2870033 α      lambda       -0.1520816E-02
   maximum displ.:     0.1271134 α      in ANC's #13, #14, #4, ...

........................................................................
.............................. CYCLE    4 ..............................
........................................................................

 iter      E             dE          RMSdq      gap      omega  full diag
   1    -69.4487169 -0.694487E+02  0.658E-02    4.16       0.0  T
   2    -69.4487338 -0.169107E-04  0.390E-02    4.17       1.0  T
   3    -69.4487293  0.445888E-05  0.239E-02    4.16       1.0  T
   4    -69.4487413 -0.119974E-04  0.454E-03    4.17       3.0  T
   5    -69.4487419 -0.596631E-06  0.212E-03    4.17       6.5  T
   6    -69.4487420 -0.111439E-06  0.943E-04    4.17      14.6  T
   7    -69.4487420 -0.354738E-08  0.479E-04    4.16      28.7  T
     SCC iter.                  ...        0 min,  0.032 sec
     gradient                   ...        0 min,  0.011 sec
 * total energy  :   -68.4456923 Eh     change       -0.1084913E-02 Eh
   gradient norm :     0.0095440 Eh/α   predicted    -0.8230717E-03 ( -24.13%)
   displ. norm   :     0.3157963 α      lambda       -0.8846137E-03
   maximum displ.:     0.1564753 α      in ANC's #13, #4, #14, ...

........................................................................
.............................. CYCLE    5 ..............................
........................................................................

 iter      E             dE          RMSdq      gap      omega  full diag
   1    -69.4459222 -0.694459E+02  0.644E-02    4.17       0.0  T
   2    -69.4459299 -0.775985E-05  0.386E-02    4.18       1.0  T
   3    -69.4459187  0.111850E-04  0.244E-02    4.17       1.0  T
   4    -69.4459364 -0.176202E-04  0.295E-03    4.17       4.7  T
   5    -69.4459366 -0.261192E-06  0.137E-03    4.18      10.0  T
   6    -69.4459367 -0.350987E-07  0.684E-04    4.17      20.1  T
   7    -69.4459367 -0.189038E-08  0.292E-04    4.17      47.0  T
     SCC iter.                  ...        0 min,  0.032 sec
     gradient                   ...        0 min,  0.013 sec
 * total energy  :   -68.4462971 Eh     change       -0.6048536E-03 Eh
   gradient norm :     0.0105740 Eh/α   predicted    -0.4864249E-03 ( -19.58%)
   displ. norm   :     0.2823165 α      lambda       -0.5181119E-03
   maximum displ.:     0.1629565 α      in ANC's #4, #13, #5, ...

........................................................................
.............................. CYCLE    6 ..............................
........................................................................

 iter      E             dE          RMSdq      gap      omega  full diag
   1    -69.4436009 -0.694436E+02  0.531E-02    4.18       0.0  T
   2    -69.4436026 -0.170146E-05  0.318E-02    4.18       1.0  T
   3    -69.4435921  0.104976E-04  0.180E-02    4.18       1.0  T
   4    -69.4436050 -0.128842E-04  0.144E-03    4.18       9.6  T
   5    -69.4436050 -0.243061E-07  0.896E-04    4.18      15.3  T
   6    -69.4436050 -0.698071E-08  0.465E-04    4.18      29.5  T
     SCC iter.                  ...        0 min,  0.027 sec
     gradient                   ...        0 min,  0.013 sec
 * total energy  :   -68.4466857 Eh     change       -0.3885223E-03 Eh
   gradient norm :     0.0077516 Eh/α   predicted    -0.2797051E-03 ( -28.01%)
   displ. norm   :     0.3229666 α      lambda       -0.4677970E-03
   maximum displ.:     0.1993692 α      in ANC's #4, #13, #1, ...

........................................................................
.............................. CYCLE    7 ..............................
........................................................................

 iter      E             dE          RMSdq      gap      omega  full diag
   1    -69.4420407 -0.694420E+02  0.581E-02    4.19       0.0  T
   2    -69.4420449 -0.419652E-05  0.345E-02    4.19       1.0  T
   3    -69.4420351  0.982612E-05  0.190E-02    4.19       1.0  T
   4    -69.4420478 -0.127325E-04  0.263E-03    4.19       5.2  T
   5    -69.4420481 -0.217537E-06  0.113E-03    4.19      12.1  T
   6    -69.4420481 -0.179945E-07  0.461E-04    4.19      29.8  T
   7    -69.4420481 -0.629825E-10  0.196E-04    4.19      70.1  T
     SCC iter.                  ...        0 min,  0.030 sec
     gradient                   ...        0 min,  0.013 sec
 * total energy  :   -68.4470404 Eh     change       -0.3546895E-03 Eh
   gradient norm :     0.0082801 Eh/α   predicted    -0.2583089E-03 ( -27.17%)
   displ. norm   :     0.3516146 α      lambda       -0.4691515E-03
   maximum displ.:     0.2261880 α      in ANC's #4, #1, #5, ...

........................................................................
.............................. CYCLE    8 ..............................
........................................................................

 iter      E             dE          RMSdq      gap      omega  full diag
   1    -69.4432051 -0.694432E+02  0.617E-02    4.20       0.0  T
   2    -69.4432104 -0.523199E-05  0.367E-02    4.19       1.0  T
   3    -69.4432055  0.482529E-05  0.129E-02    4.19       1.1  T
   4    -69.4432120 -0.646749E-05  0.271E-03    4.19       5.1  T
   5    -69.4432122 -0.156551E-06  0.149E-03    4.19       9.2  T
   6    -69.4432122 -0.495522E-07  0.613E-04    4.19      22.4  T
   7    -69.4432122 -0.165740E-08  0.189E-04    4.19      72.8  T
     SCC iter.                  ...        0 min,  0.030 sec
     gradient                   ...        0 min,  0.012 sec
 * total energy  :   -68.4473374 Eh     change       -0.2970046E-03 Eh
   gradient norm :     0.0057726 Eh/α   predicted    -0.2635788E-03 ( -11.25%)
   displ. norm   :     0.3520265 α      lambda       -0.3258555E-03
   maximum displ.:     0.2269445 α      in ANC's #4, #1, #5, ...

........................................................................
.............................. CYCLE    9 ..............................
........................................................................

 iter      E             dE          RMSdq      gap      omega  full diag
   1    -69.4421341 -0.694421E+02  0.589E-02    4.20       0.0  T
   2    -69.4421383 -0.423960E-05  0.349E-02    4.20       1.0  T
   3    -69.4421301  0.817742E-05  0.168E-02    4.20       1.0  T
   4    -69.4421405 -0.103904E-04  0.281E-03    4.20       4.9  T
   5    -69.4421407 -0.183350E-06  0.148E-03    4.20       9.3  T
   6    -69.4421407 -0.342277E-07  0.631E-04    4.20      21.8  T
   7    -69.4421407 -0.168771E-08  0.152E-04    4.20      90.4  T
     SCC iter.                  ...        0 min,  0.027 sec
     gradient                   ...        0 min,  0.012 sec
 * total energy  :   -68.4474773 Eh     change       -0.1399579E-03 Eh
   gradient norm :     0.0107448 Eh/α   predicted    -0.1831196E-03 (  30.84%)
   displ. norm   :     0.1518382 α      lambda       -0.2377853E-03
   maximum displ.:     0.0838932 α      in ANC's #4, #6, #1, ...

........................................................................
.............................. CYCLE   10 ..............................
........................................................................

 iter      E             dE          RMSdq      gap      omega  full diag
   1    -69.4449587 -0.694450E+02  0.246E-02    4.21       0.0  T
   2    -69.4449592 -0.459522E-06  0.146E-02    4.21       1.0  T
   3    -69.4449581  0.105665E-05  0.589E-03    4.21       2.3  T
   4    -69.4449595 -0.134911E-05  0.105E-03    4.21      13.1  T
   5    -69.4449595 -0.118862E-07  0.668E-04    4.21      20.6  T
   6    -69.4449595 -0.451062E-08  0.347E-04    4.21      39.6  T
     SCC iter.                  ...        0 min,  0.026 sec
     gradient                   ...        0 min,  0.014 sec
 * total energy  :   -68.4476533 Eh     change       -0.1759817E-03 Eh
   gradient norm :     0.0036748 Eh/α   predicted    -0.1216385E-03 ( -30.88%)
   displ. norm   :     0.3172397 α      lambda       -0.2289712E-03
   maximum displ.:     0.1904446 α      in ANC's #4, #6, #1, ...

........................................................................
.............................. CYCLE   11 ..............................
........................................................................

 iter      E             dE          RMSdq      gap      omega  full diag
   1    -69.4455151 -0.694455E+02  0.528E-02    4.21       0.0  T
   2    -69.4455160 -0.895520E-06  0.313E-02    4.21       1.0  T
   3    -69.4455145  0.153746E-05  0.754E-03    4.21       1.8  T
   4    -69.4455165 -0.198609E-05  0.121E-03    4.21      11.4  T
   5    -69.4455165 -0.490819E-08  0.715E-04    4.21      19.2  T
   6    -69.4455165 -0.260376E-08  0.358E-04    4.21      38.4  T
     SCC iter.                  ...        0 min,  0.032 sec
     gradient                   ...        0 min,  0.018 sec
 * total energy  :   -68.4478321 Eh     change       -0.1787707E-03 Eh
   gradient norm :     0.0041954 Eh/α   predicted    -0.1260084E-03 ( -29.51%)
   displ. norm   :     0.3490573 α      lambda       -0.2101628E-03
   maximum displ.:     0.2016791 α      in ANC's #4, #6, #1, ...

........................................................................
.............................. CYCLE   12 ..............................
........................................................................

 iter      E             dE          RMSdq      gap      omega  full diag
   1    -69.4450434 -0.694450E+02  0.601E-02    4.22       0.0  T
   2    -69.4450445 -0.102977E-05  0.355E-02    4.22       1.0  T
   3    -69.4450420  0.245051E-05  0.905E-03    4.22       1.5  T
   4    -69.4450450 -0.298703E-05  0.138E-03    4.22      10.0  T
   5    -69.4450450 -0.169986E-07  0.873E-04    4.22      15.7  T
   6    -69.4450450 -0.990958E-08  0.382E-04    4.22      36.0  T
     SCC iter.                  ...        0 min,  0.038 sec
     gradient                   ...        0 min,  0.020 sec
 * total energy  :   -68.4480057 Eh     change       -0.1736007E-03 Eh
   gradient norm :     0.0051717 Eh/α   predicted    -0.1178853E-03 ( -32.09%)
   displ. norm   :     0.3713007 α      lambda       -0.2154502E-03
   maximum displ.:     0.2159793 α      in ANC's #6, #1, #4, ...

........................................................................
.............................. CYCLE   13 ..............................
........................................................................

 iter      E             dE          RMSdq      gap      omega  full diag
   1    -69.4445022 -0.694445E+02  0.661E-02    4.23       0.0  T
   2    -69.4445032 -0.108711E-05  0.390E-02    4.23       1.0  T
   3    -69.4445008  0.248740E-05  0.892E-03    4.23       1.5  T
   4    -69.4445038 -0.301954E-05  0.149E-03    4.23       9.2  T
   5    -69.4445038 -0.240599E-07  0.911E-04    4.23      15.1  T
   6    -69.4445038 -0.107628E-07  0.400E-04    4.23      34.3  T
     SCC iter.                  ...        0 min,  0.042 sec
     gradient                   ...        0 min,  0.018 sec
 * total energy  :   -68.4481772 Eh     change       -0.1715267E-03 Eh
   gradient norm :     0.0049186 Eh/α   predicted    -0.1225776E-03 ( -28.54%)
   displ. norm   :     0.3545135 α      lambda       -0.1778774E-03
   maximum displ.:     0.2154939 α      in ANC's #6, #1, #4, ...

........................................................................
.............................. CYCLE   14 ..............................
........................................................................

 iter      E             dE          RMSdq      gap      omega  full diag
   1    -69.4444014 -0.694444E+02  0.622E-02    4.23       0.0  T
   2    -69.4444024 -0.988388E-06  0.367E-02    4.23       1.0  T
   3    -69.4444012  0.115606E-05  0.642E-03    4.23       2.1  T
   4    -69.4444027 -0.151668E-05  0.129E-03    4.23      10.7  T
   5    -69.4444028 -0.110703E-07  0.784E-04    4.23      17.5  T
   6    -69.4444028 -0.852089E-08  0.372E-04    4.23      36.9  T
     SCC iter.                  ...        0 min,  0.043 sec
     gradient                   ...        0 min,  0.018 sec
 * total energy  :   -68.4483113 Eh     change       -0.1341158E-03 Eh
   gradient norm :     0.0041942 Eh/α   predicted    -0.1001208E-03 ( -25.35%)
   displ. norm   :     0.3126824 α      lambda       -0.1359236E-03
   maximum displ.:     0.1934476 α      in ANC's #6, #1, #4, ...

........................................................................
.............................. CYCLE   15 ..............................
........................................................................

 iter      E             dE          RMSdq      gap      omega  full diag
   1    -69.4452830 -0.694453E+02  0.525E-02    4.24       0.0  T
   2    -69.4452839 -0.917741E-06  0.311E-02    4.24       1.0  T
   3    -69.4452833  0.688235E-06  0.496E-03    4.24       2.8  T
   4    -69.4452842 -0.963385E-06  0.109E-03    4.24      12.6  T
   5    -69.4452842 -0.783490E-08  0.585E-04    4.24      23.5  T
   6    -69.4452842 -0.274842E-08  0.280E-04    4.24      49.1  T
     SCC iter.                  ...        0 min,  0.045 sec
     gradient                   ...        0 min,  0.016 sec
 * total energy  :   -68.4484135 Eh     change       -0.1021428E-03 Eh
   gradient norm :     0.0030705 Eh/α   predicted    -0.7460721E-04 ( -26.96%)
   displ. norm   :     0.3211944 α      lambda       -0.1196252E-03
   maximum displ.:     0.1856062 α      in ANC's #6, #1, #4, ...

........................................................................
.............................. CYCLE   16 ..............................
........................................................................

 iter      E             dE          RMSdq      gap      omega  full diag
   1    -69.4450933 -0.694451E+02  0.511E-02    4.25       0.0  T
   2    -69.4450948 -0.145159E-05  0.303E-02    4.25       1.0  T
   3    -69.4450932  0.158194E-05  0.691E-03    4.25       2.0  T
   4    -69.4450952 -0.197462E-05  0.153E-03    4.25       9.0  T
   5    -69.4450952 -0.394437E-07  0.790E-04    4.25      17.4  T
   6    -69.4450952 -0.114420E-07  0.392E-04    4.25      35.1  T
     SCC iter.                  ...        0 min,  0.046 sec
     gradient                   ...        0 min,  0.017 sec
 * total energy  :   -68.4484972 Eh     change       -0.8377709E-04 Eh
   gradient norm :     0.0043473 Eh/α   predicted    -0.6598467E-04 ( -21.24%)
   displ. norm   :     0.3188333 α      lambda       -0.1774390E-03
   maximum displ.:     0.1661826 α      in ANC's #1, #6, #5, ...

........................................................................
.............................. CYCLE   17 ..............................
........................................................................

 iter      E             dE          RMSdq      gap      omega  full diag
   1    -69.4505288 -0.694505E+02  0.455E-02    4.25       0.0  T
   2    -69.4505305 -0.172926E-05  0.269E-02    4.25       1.0  T
   3    -69.4505279  0.257389E-05  0.871E-03    4.25       1.6  T
   4    -69.4505310 -0.305668E-05  0.170E-03    4.25       8.1  T
   5    -69.4505310 -0.700786E-07  0.794E-04    4.25      17.3  T
   6    -69.4505310 -0.504568E-08  0.420E-04    4.25      32.7  T
     SCC iter.                  ...        0 min,  0.040 sec
     gradient                   ...        0 min,  0.020 sec
 * total energy  :   -68.4485689 Eh     change       -0.7166936E-04 Eh
   gradient norm :     0.0055413 Eh/α   predicted    -0.9773844E-04 (  36.37%)
   displ. norm   :     0.2912179 α      lambda       -0.1447859E-03
   maximum displ.:     0.1808596 α      in ANC's #1, #6, #4, ...

........................................................................
.............................. CYCLE   18 ..............................
........................................................................

 iter      E             dE          RMSdq      gap      omega  full diag
   1    -69.4467892 -0.694468E+02  0.450E-02    4.26       0.0  T
   2    -69.4467915 -0.228714E-05  0.266E-02    4.26       1.0  T
   3    -69.4467903  0.121591E-05  0.727E-03    4.26       1.9  T
   4    -69.4467919 -0.165487E-05  0.167E-03    4.26       8.2  T
   5    -69.4467920 -0.507965E-07  0.800E-04    4.26      17.2  T
   6    -69.4467920 -0.647769E-08  0.466E-04    4.26      29.5  T
     SCC iter.                  ...        0 min,  0.047 sec
     gradient                   ...        0 min,  0.018 sec
 * total energy  :   -68.4486611 Eh     change       -0.9224450E-04 Eh
   gradient norm :     0.0055821 Eh/α   predicted    -0.7853284E-04 ( -14.86%)
   displ. norm   :     0.1422979 α      lambda       -0.1345995E-03
   maximum displ.:     0.0734044 α      in ANC's #1, #13, #7, ...

........................................................................
.............................. CYCLE   19 ..............................
........................................................................

 iter      E             dE          RMSdq      gap      omega  full diag
   1    -69.4460050 -0.694460E+02  0.213E-02    4.26       0.0  T
   2    -69.4460053 -0.245056E-06  0.126E-02    4.26       1.1  T
   3    -69.4460052  0.564563E-07  0.182E-03    4.26       7.6  T
   4    -69.4460053 -0.976511E-07  0.686E-04    4.26      20.0  T
   5    -69.4460053 -0.106943E-07  0.351E-04    4.26      39.1  T
     SCC iter.                  ...        0 min,  0.034 sec
     gradient                   ...        0 min,  0.022 sec
 * total energy  :   -68.4487683 Eh     change       -0.1071646E-03 Eh
   gradient norm :     0.0055237 Eh/α   predicted    -0.6866319E-04 ( -35.93%)
   displ. norm   :     0.3132907 α      lambda       -0.2611795E-03
   maximum displ.:     0.1589871 α      in ANC's #1, #7, #13, ...

........................................................................
.............................. CYCLE   20 ..............................
........................................................................

 iter      E             dE          RMSdq      gap      omega  full diag
   1    -69.4445411 -0.694445E+02  0.463E-02    4.26       0.0  T
   2    -69.4445421 -0.103055E-05  0.274E-02    4.26       1.0  T
   3    -69.4445408  0.130923E-05  0.711E-03    4.26       1.9  T
   4    -69.4445425 -0.169183E-05  0.138E-03    4.26      10.0  T
   5    -69.4445425 -0.204369E-07  0.767E-04    4.26      17.9  T
   6    -69.4445425 -0.638882E-08  0.392E-04    4.26      35.0  T
     SCC iter.                  ...        0 min,  0.077 sec
     gradient                   ...        0 min,  0.023 sec
 * total energy  :   -68.4489440 Eh     change       -0.1756594E-03 Eh
   gradient norm :     0.0058075 Eh/α   predicted    -0.1434099E-03 ( -18.36%)
   displ. norm   :     0.3063386 α      lambda       -0.1656950E-03
   maximum displ.:     0.1874936 α      in ANC's #1, #13, #7, ...
 * RMSD in coord.:     0.5950768 α      energy gain  -0.2516608E-01 Eh

generating ANC from model Hessian ...
Using Lindh-Hessian (1995)
 Shifting diagonal of input Hessian by    9.8219477516350712E-003
 Lowest  eigenvalues of input Hessian
    0.000000    0.000000    0.000000    0.000000    0.000000    0.000000
    0.010000    0.010089    0.010771    0.010954    0.011151    0.011735
    0.011988    0.012908    0.013856    0.015197    0.015420    0.016189
 Highest eigenvalues
    1.723615    1.787592    1.895094    1.910419    2.060733    2.110392


........................................................................
.............................. CYCLE   21 ..............................
........................................................................

 iter      E             dE          RMSdq      gap      omega  full diag
   1    -69.4449014 -0.694449E+02  0.408E-02    4.26       0.0  T
   2    -69.4449024 -0.100460E-05  0.242E-02    4.26       1.0  T
   3    -69.4449014  0.104209E-05  0.681E-03    4.26       2.0  T
   4    -69.4449027 -0.138395E-05  0.104E-03    4.26      13.3  T
   5    -69.4449028 -0.772008E-08  0.596E-04    4.26      23.0  T
   6    -69.4449028 -0.100020E-08  0.251E-04    4.26      54.7  T
     SCC iter.                  ...        0 min,  0.078 sec
     gradient                   ...        0 min,  0.033 sec
 * total energy  :   -68.4490660 Eh     change       -0.1220235E-03 Eh
   gradient norm :     0.0070856 Eh/α   predicted     0.0000000E+00 (-100.00%)
   displ. norm   :     0.0704045 α      lambda       -0.1657416E-03
   maximum displ.:     0.0517833 α      in ANC's #15, #1, #16, ...

........................................................................
.............................. CYCLE   22 ..............................
........................................................................

 iter      E             dE          RMSdq      gap      omega  full diag
   1    -69.4469107 -0.694469E+02  0.160E-02    4.26       0.0  T
   2    -69.4469113 -0.598482E-06  0.922E-03    4.26       1.5  T
   3    -69.4469113  0.848382E-08  0.220E-03    4.26       6.2  T
   4    -69.4469114 -0.602240E-07  0.674E-04    4.26      20.4  T
   5    -69.4469114 -0.108090E-07  0.354E-04    4.26      38.8  T
     SCC iter.                  ...        0 min,  0.087 sec
     gradient                   ...        0 min,  0.036 sec
 * total energy  :   -68.4491948 Eh     change       -0.1288340E-03 Eh
   gradient norm :     0.0027109 Eh/α   predicted    -0.8335178E-04 ( -35.30%)
   displ. norm   :     0.1827648 α      lambda       -0.2246742E-03
   maximum displ.:     0.1383018 α      in ANC's #15, #16, #1, ...

........................................................................
.............................. CYCLE   23 ..............................
........................................................................

 iter      E             dE          RMSdq      gap      omega  full diag
   1    -69.4485132 -0.694485E+02  0.288E-02    4.26       0.0  T
   2    -69.4485136 -0.422767E-06  0.172E-02    4.26       1.0  T
   3    -69.4485135  0.146710E-06  0.257E-03    4.26       5.3  T
   4    -69.4485137 -0.242327E-06  0.703E-04    4.26      19.5  T
   5    -69.4485137 -0.547672E-08  0.396E-04    4.26      34.7  T
     SCC iter.                  ...        0 min,  0.086 sec
     gradient                   ...        0 min,  0.037 sec
 * total energy  :   -68.4493720 Eh     change       -0.1771511E-03 Eh
   gradient norm :     0.0031036 Eh/α   predicted    -0.1160958E-03 ( -34.47%)
   displ. norm   :     0.3911464 α      lambda       -0.3568323E-03
   maximum displ.:     0.2931761 α      in ANC's #15, #16, #1, ...

........................................................................
.............................. CYCLE   24 ..............................
........................................................................

 iter      E             dE          RMSdq      gap      omega  full diag
   1    -69.4471420 -0.694471E+02  0.580E-02    4.26       0.0  T
   2    -69.4471439 -0.195567E-05  0.345E-02    4.26       1.0  T
   3    -69.4471436  0.332581E-06  0.464E-03    4.26       3.0  T
   4    -69.4471442 -0.580516E-06  0.170E-03    4.26       8.1  T
   5    -69.4471442 -0.695914E-07  0.762E-04    4.26      18.0  T
   6    -69.4471442 -0.999080E-09  0.410E-04    4.26      33.5  T
     SCC iter.                  ...        0 min,  0.106 sec
     gradient                   ...        0 min,  0.038 sec
 * total energy  :   -68.4496432 Eh     change       -0.2712485E-03 Eh
   gradient norm :     0.0081728 Eh/α   predicted    -0.2057229E-03 ( -24.16%)
   displ. norm   :     0.3091176 α      lambda       -0.2323360E-03
   maximum displ.:     0.2199617 α      in ANC's #15, #16, #1, ...

........................................................................
.............................. CYCLE   25 ..............................
........................................................................

 iter      E             dE          RMSdq      gap      omega  full diag
   1    -69.4443798 -0.694444E+02  0.454E-02    4.26       0.0  T
   2    -69.4443824 -0.262355E-05  0.266E-02    4.26       1.0  T
   3    -69.4443823  0.800405E-07  0.463E-03    4.26       3.0  T
   4    -69.4443826 -0.251138E-06  0.169E-03    4.26       8.1  T
   5    -69.4443827 -0.765523E-07  0.688E-04    4.26      20.0  T
   6    -69.4443827 -0.204878E-09  0.329E-04    4.26      41.8  T
     SCC iter.                  ...        0 min,  0.110 sec
     gradient                   ...        0 min,  0.037 sec
 * total energy  :   -68.4497270 Eh     change       -0.8375502E-04 Eh
   gradient norm :     0.0136781 Eh/α   predicted    -0.1272695E-03 (  51.95%)
   displ. norm   :     0.0703130 α      lambda       -0.3506760E-03
   maximum displ.:     0.0268588 α      in ANC's #20, #5, #14, ...

........................................................................
.............................. CYCLE   26 ..............................
........................................................................

 iter      E             dE          RMSdq      gap      omega  full diag
   1    -69.4465783 -0.694466E+02  0.281E-02    4.26       0.0  T
   2    -69.4465805 -0.216096E-05  0.159E-02    4.26       1.0  T
   3    -69.4465803  0.179049E-06  0.468E-03    4.26       2.9  T
   4    -69.4465807 -0.335273E-06  0.171E-03    4.26       8.1  T
   5    -69.4465807 -0.817302E-07  0.636E-04    4.26      21.6  T
   6    -69.4465807 -0.309058E-08  0.393E-04    4.26      34.9  T
     SCC iter.                  ...        0 min,  0.091 sec
     gradient                   ...        0 min,  0.019 sec
 * total energy  :   -68.4499595 Eh     change       -0.2325471E-03 Eh
   gradient norm :     0.0058678 Eh/α   predicted    -0.1762052E-03 ( -24.23%)
   displ. norm   :     0.2032566 α      lambda       -0.2133516E-03
   maximum displ.:     0.0977097 α      in ANC's #15, #20, #1, ...

........................................................................
.............................. CYCLE   27 ..............................
........................................................................

 iter      E             dE          RMSdq      gap      omega  full diag
   1    -69.4470760 -0.694471E+02  0.340E-02    4.26       0.0  T
   2    -69.4470765 -0.536642E-06  0.202E-02    4.26       1.0  T
   3    -69.4470761  0.431170E-06  0.386E-03    4.26       3.6  T
   4    -69.4470766 -0.575890E-06  0.733E-04    4.26      18.7  T
   5    -69.4470766 -0.465545E-08  0.387E-04    4.26      35.5  T
     SCC iter.                  ...        0 min,  0.039 sec
     gradient                   ...        0 min,  0.018 sec
 * total energy  :   -68.4501142 Eh     change       -0.1546907E-03 Eh
   gradient norm :     0.0062324 Eh/α   predicted    -0.1112093E-03 ( -28.11%)
   displ. norm   :     0.2205919 α      lambda       -0.1782141E-03
   maximum displ.:     0.1013810 α      in ANC's #15, #20, #1, ...

........................................................................
.............................. CYCLE   28 ..............................
........................................................................

 iter      E             dE          RMSdq      gap      omega  full diag
   1    -69.4473494 -0.694473E+02  0.347E-02    4.26       0.0  T
   2    -69.4473497 -0.293877E-06  0.206E-02    4.26       1.0  T
   3    -69.4473491  0.679051E-06  0.439E-03    4.26       3.1  T
   4    -69.4473499 -0.805020E-06  0.791E-04    4.26      17.4  T
   5    -69.4473499 -0.110830E-07  0.416E-04    4.26      33.1  T
     SCC iter.                  ...        0 min,  0.044 sec
     gradient                   ...        0 min,  0.018 sec
 * total energy  :   -68.4502453 Eh     change       -0.1310345E-03 Eh
   gradient norm :     0.0071575 Eh/α   predicted    -0.9344989E-04 ( -28.68%)
   displ. norm   :     0.2036537 α      lambda       -0.1836849E-03
   maximum displ.:     0.0724507 α      in ANC's #1, #15, #2, ...

........................................................................
.............................. CYCLE   29 ..............................
........................................................................

 iter      E             dE          RMSdq      gap      omega  full diag
   1    -69.4486615 -0.694487E+02  0.315E-02    4.25       0.0  T
   2    -69.4486618 -0.322382E-06  0.187E-02    4.25       1.0  T
   3    -69.4486610  0.801494E-06  0.467E-03    4.25       2.9  T
   4    -69.4486620 -0.930334E-06  0.757E-04    4.25      18.1  T
   5    -69.4486620 -0.108675E-07  0.382E-04    4.25      35.9  T
     SCC iter.                  ...        0 min,  0.035 sec
     gradient                   ...        0 min,  0.019 sec
 * total energy  :   -68.4503741 Eh     change       -0.1288612E-03 Eh
   gradient norm :     0.0052360 Eh/α   predicted    -0.9565641E-04 ( -25.77%)
   displ. norm   :     0.2950498 α      lambda       -0.1714320E-03
   maximum displ.:     0.1463697 α      in ANC's #15, #1, #13, ...

........................................................................
.............................. CYCLE   30 ..............................
........................................................................

 iter      E             dE          RMSdq      gap      omega  full diag
   1    -69.4466564 -0.694467E+02  0.410E-02    4.25       0.0  T
   2    -69.4466578 -0.143908E-05  0.242E-02    4.25       1.0  T
   3    -69.4466569  0.925399E-06  0.572E-03    4.25       2.4  T
   4    -69.4466580 -0.106998E-05  0.195E-03    4.25       7.0  T
   5    -69.4466581 -0.126178E-06  0.615E-04    4.25      22.3  T
   6    -69.4466581  0.264251E-09  0.276E-04    4.25      49.7  T
     SCC iter.                  ...        0 min,  0.042 sec
     gradient                   ...        0 min,  0.020 sec
 * total energy  :   -68.4504455 Eh     change       -0.7140638E-04 Eh
   gradient norm :     0.0088288 Eh/α   predicted    -0.9317966E-04 (  30.49%)
   displ. norm   :     0.1446939 α      lambda       -0.2773307E-03
   maximum displ.:     0.0630989 α      in ANC's #2, #13, #1, ...

........................................................................
.............................. CYCLE   31 ..............................
........................................................................

 iter      E             dE          RMSdq      gap      omega  full diag
   1    -69.4495746 -0.694496E+02  0.293E-02    4.25       0.0  T
   2    -69.4495769 -0.231500E-05  0.167E-02    4.25       1.0  T
   3    -69.4495767  0.224086E-06  0.519E-03    4.25       2.6  T
   4    -69.4495771 -0.398181E-06  0.175E-03    4.25       7.8  T
   5    -69.4495772 -0.867410E-07  0.738E-04    4.25      18.6  T
   6    -69.4495772 -0.284506E-08  0.401E-04    4.25      34.3  T
     SCC iter.                  ...        0 min,  0.035 sec
     gradient                   ...        0 min,  0.018 sec
 * total energy  :   -68.4505889 Eh     change       -0.1434183E-03 Eh
   gradient norm :     0.0038416 Eh/α   predicted    -0.1415722E-03 (  -1.29%)
   displ. norm   :     0.1696626 α      lambda       -0.8595145E-04
   maximum displ.:     0.0758687 α      in ANC's #15, #1, #2, ...

........................................................................
.............................. CYCLE   32 ..............................
........................................................................

 iter      E             dE          RMSdq      gap      omega  full diag
   1    -69.4487029 -0.694487E+02  0.222E-02    4.25       0.0  T
   2    -69.4487032 -0.290383E-06  0.132E-02    4.25       1.0  T
   3    -69.4487031  0.422067E-07  0.172E-03    4.25       8.0  T
   4    -69.4487032 -0.827262E-07  0.562E-04    4.25      24.5  T
   5    -69.4487032 -0.605982E-08  0.267E-04    4.25      51.5  T
     SCC iter.                  ...        0 min,  0.033 sec
     gradient                   ...        0 min,  0.018 sec
 * total energy  :   -68.4506538 Eh     change       -0.6487058E-04 Eh
   gradient norm :     0.0037765 Eh/α   predicted    -0.4421774E-04 ( -31.84%)
   displ. norm   :     0.1998162 α      lambda       -0.1096110E-03
   maximum displ.:     0.0902336 α      in ANC's #1, #2, #15, ...

........................................................................
.............................. CYCLE   33 ..............................
........................................................................

 iter      E             dE          RMSdq      gap      omega  full diag
   1    -69.4482934 -0.694483E+02  0.285E-02    4.25       0.0  T
   2    -69.4482937 -0.295882E-06  0.169E-02    4.25       1.0  T
   3    -69.4482935  0.181639E-06  0.249E-03    4.25       5.5  T
   4    -69.4482937 -0.236667E-06  0.747E-04    4.25      18.4  T
   5    -69.4482937 -0.134427E-07  0.346E-04    4.25      39.7  T
     SCC iter.                  ...        0 min,  0.059 sec
     gradient                   ...        0 min,  0.026 sec
 * total energy  :   -68.4507223 Eh     change       -0.6846951E-04 Eh
   gradient norm :     0.0037984 Eh/α   predicted    -0.5699562E-04 ( -16.76%)
   displ. norm   :     0.0932216 α      lambda       -0.5860883E-04
   maximum displ.:     0.0459485 α      in ANC's #7, #2, #5, ...

........................................................................
.............................. CYCLE   34 ..............................
........................................................................

 iter      E             dE          RMSdq      gap      omega  full diag
   1    -69.4492985 -0.694493E+02  0.181E-02    4.26       0.0  T
   2    -69.4492987 -0.227905E-06  0.106E-02    4.26       1.3  T
   3    -69.4492987  0.567542E-07  0.165E-03    4.26       8.3  T
   4    -69.4492987 -0.802689E-07  0.661E-04    4.26      20.8  T
   5    -69.4492988 -0.130161E-07  0.268E-04    4.26      51.2  T
     SCC iter.                  ...        0 min,  0.053 sec
     gradient                   ...        0 min,  0.020 sec
 * total energy  :   -68.4507625 Eh     change       -0.4020794E-04 Eh
   gradient norm :     0.0029538 Eh/α   predicted    -0.2956001E-04 ( -26.48%)
   displ. norm   :     0.2390627 α      lambda       -0.8302214E-04
   maximum displ.:     0.1146450 α      in ANC's #2, #1, #7, ...

........................................................................
.............................. CYCLE   35 ..............................
........................................................................

 iter      E             dE          RMSdq      gap      omega  full diag
   1    -69.4490232 -0.694490E+02  0.328E-02    4.26       0.0  T
   2    -69.4490234 -0.278491E-06  0.196E-02    4.26       1.0  T
   3    -69.4490232  0.236744E-06  0.253E-03    4.26       5.4  T
   4    -69.4490235 -0.311614E-06  0.765E-04    4.26      18.0  T
   5    -69.4490235 -0.106396E-07  0.384E-04    4.26      35.8  T
     SCC iter.                  ...        0 min,  0.050 sec
     gradient                   ...        0 min,  0.018 sec
 * total energy  :   -68.4508223 Eh     change       -0.5979241E-04 Eh
   gradient norm :     0.0037793 Eh/α   predicted    -0.4388400E-04 ( -26.61%)
   displ. norm   :     0.2495540 α      lambda       -0.1000629E-03
   maximum displ.:     0.1300985 α      in ANC's #7, #2, #1, ...

........................................................................
.............................. CYCLE   36 ..............................
........................................................................

 iter      E             dE          RMSdq      gap      omega  full diag
   1    -69.4493884 -0.694494E+02  0.396E-02    4.26       0.0  T
   2    -69.4493890 -0.554407E-06  0.234E-02    4.26       1.0  T
   3    -69.4493886  0.399273E-06  0.328E-03    4.26       4.2  T
   4    -69.4493891 -0.547946E-06  0.908E-04    4.26      15.1  T
   5    -69.4493891 -0.952659E-08  0.498E-04    4.26      27.6  T
     SCC iter.                  ...        0 min,  0.051 sec
     gradient                   ...        0 min,  0.020 sec
 * total energy  :   -68.4508918 Eh     change       -0.6955006E-04 Eh
   gradient norm :     0.0028309 Eh/α   predicted    -0.5314967E-04 ( -23.58%)
   displ. norm   :     0.2202519 α      lambda       -0.5936020E-04
   maximum displ.:     0.1053996 α      in ANC's #2, #7, #1, ...

........................................................................
.............................. CYCLE   37 ..............................
........................................................................

 iter      E             dE          RMSdq      gap      omega  full diag
   1    -69.4488356 -0.694488E+02  0.333E-02    4.26       0.0  T
   2    -69.4488360 -0.345013E-06  0.197E-02    4.26       1.0  T
   3    -69.4488358  0.159624E-06  0.238E-03    4.26       5.8  T
   4    -69.4488361 -0.240993E-06  0.689E-04    4.26      19.9  T
   5    -69.4488361 -0.612529E-08  0.337E-04    4.26      40.8  T
     SCC iter.                  ...        0 min,  0.036 sec
     gradient                   ...        0 min,  0.019 sec
 * total energy  :   -68.4509319 Eh     change       -0.4003438E-04 Eh
   gradient norm :     0.0025827 Eh/α   predicted    -0.3112384E-04 ( -22.26%)
   displ. norm   :     0.1634788 α      lambda       -0.5670241E-04
   maximum displ.:     0.0859184 α      in ANC's #5, #7, #1, ...

........................................................................
.............................. CYCLE   38 ..............................
........................................................................

 iter      E             dE          RMSdq      gap      omega  full diag
   1    -69.4500395 -0.694500E+02  0.286E-02    4.26       0.0  T
   2    -69.4500401 -0.562869E-06  0.167E-02    4.26       1.0  T
   3    -69.4500399  0.123034E-06  0.260E-03    4.26       5.3  T
   4    -69.4500401 -0.193464E-06  0.808E-04    4.26      17.0  T
   5    -69.4500401 -0.138564E-07  0.357E-04    4.26      38.4  T
     SCC iter.                  ...        0 min,  0.038 sec
     gradient                   ...        0 min,  0.017 sec
 * total energy  :   -68.4509507 Eh     change       -0.1882546E-04 Eh
   gradient norm :     0.0034255 Eh/α   predicted    -0.2911031E-04 (  54.63%)
   displ. norm   :     0.1452979 α      lambda       -0.4115901E-04
   maximum displ.:     0.0791066 α      in ANC's #1, #2, #5, ...

........................................................................
.............................. CYCLE   39 ..............................
........................................................................

 iter      E             dE          RMSdq      gap      omega  full diag
   1    -69.4489304 -0.694489E+02  0.205E-02    4.26       0.0  T
   2    -69.4489308 -0.389076E-06  0.120E-02    4.26       1.1  T
   3    -69.4489307  0.676042E-07  0.214E-03    4.26       6.4  T
   4    -69.4489308 -0.104073E-06  0.669E-04    4.26      20.5  T
   5    -69.4489308 -0.112061E-07  0.279E-04    4.26      49.3  T
     SCC iter.                  ...        0 min,  0.041 sec
     gradient                   ...        0 min,  0.018 sec
 * total energy  :   -68.4509742 Eh     change       -0.2348176E-04 Eh
   gradient norm :     0.0021858 Eh/α   predicted    -0.2101983E-04 ( -10.48%)
   displ. norm   :     0.0448422 α      lambda       -0.2416859E-04
   maximum displ.:     0.0228164 α      in ANC's #7, #1, #8, ...

........................................................................
.............................. CYCLE   40 ..............................
........................................................................

 iter      E             dE          RMSdq      gap      omega  full diag
   1    -69.4495836 -0.694496E+02  0.837E-03    4.26       0.0  T
   2    -69.4495836 -0.941992E-07  0.495E-03    4.26       2.8  T
   3    -69.4495836  0.385894E-07  0.133E-03    4.26      10.3  T
   4    -69.4495837 -0.592891E-07  0.405E-04    4.26      34.0  T
   5    -69.4495837 -0.245497E-08  0.194E-04    4.26      70.8  T
     SCC iter.                  ...        0 min,  0.069 sec
     gradient                   ...        0 min,  0.020 sec
 * total energy  :   -68.4509895 Eh     change       -0.1528069E-04 Eh
   gradient norm :     0.0020392 Eh/α   predicted    -0.1210930E-04 ( -20.75%)
   displ. norm   :     0.1103690 α      lambda       -0.2712143E-04
   maximum displ.:     0.0632330 α      in ANC's #1, #2, #5, ...

........................................................................
.............................. CYCLE   41 ..............................
........................................................................

 iter      E             dE          RMSdq      gap      omega  full diag
   1    -69.4497976 -0.694498E+02  0.151E-02    4.27       0.0  T
   2    -69.4497977 -0.116166E-06  0.893E-03    4.27       1.5  T
   3    -69.4497976  0.105264E-06  0.199E-03    4.27       6.9  T
   4    -69.4497977 -0.142331E-06  0.418E-04    4.27      32.9  T
   5    -69.4497977 -0.166534E-08  0.250E-04    4.27      55.0  T
     SCC iter.                  ...        0 min,  0.050 sec
     gradient                   ...        0 min,  0.020 sec
 * total energy  :   -68.4510067 Eh     change       -0.1729511E-04 Eh
   gradient norm :     0.0019010 Eh/α   predicted    -0.1372906E-04 ( -20.62%)
   displ. norm   :     0.1939036 α      lambda       -0.1743452E-04
   maximum displ.:     0.1126381 α      in ANC's #1, #5, #2, ...

........................................................................
.............................. CYCLE   42 ..............................
........................................................................

 iter      E             dE          RMSdq      gap      omega  full diag
   1    -69.4496423 -0.694496E+02  0.260E-02    4.27       0.0  T
   2    -69.4496425 -0.124546E-06  0.154E-02    4.27       1.0  T
   3    -69.4496423  0.142114E-06  0.222E-03    4.27       6.2  T
   4    -69.4496425 -0.188432E-06  0.501E-04    4.27      27.4  T
   5    -69.4496425 -0.329072E-08  0.282E-04    4.27      48.7  T
     SCC iter.                  ...        0 min,  0.035 sec
     gradient                   ...        0 min,  0.030 sec
 * total energy  :   -68.4510215 Eh     change       -0.1472397E-04 Eh
   gradient norm :     0.0015949 Eh/α   predicted    -0.8864696E-05 ( -39.79%)
   displ. norm   :     0.0893124 α      lambda       -0.1091629E-04
   maximum displ.:     0.0580689 α      in ANC's #1, #2, #5, ...
 * RMSD in coord.:     0.4198494 α      energy gain  -0.2077502E-02 Eh

generating ANC from model Hessian ...
Using Lindh-Hessian (1995)
 Shifting diagonal of input Hessian by    9.8264312433138795E-003
 Lowest  eigenvalues of input Hessian
    0.000000    0.000000    0.000000    0.000000    0.000000    0.000000
    0.010000    0.010088    0.010831    0.010965    0.011163    0.011751
    0.011967    0.012981    0.013917    0.015150    0.015606    0.016281
 Highest eigenvalues
    1.724570    1.787184    1.903787    1.911674    2.061310    2.110147


........................................................................
.............................. CYCLE   43 ..............................
........................................................................

 iter      E             dE          RMSdq      gap      omega  full diag
   1    -69.4498797 -0.694499E+02  0.122E-02    4.27       0.0  T
   2    -69.4498797 -0.595538E-07  0.717E-03    4.27       1.9  T
   3    -69.4498797  0.385832E-07  0.122E-03    4.27      11.2  T
   4    -69.4498797 -0.563363E-07  0.318E-04    4.27      43.2  T
   5    -69.4498797 -0.976755E-09  0.190E-04    4.27      72.3  T
     SCC iter.                  ...        0 min,  0.057 sec
     gradient                   ...        0 min,  0.023 sec
 * total energy  :   -68.4510305 Eh     change       -0.9057900E-05 Eh
   gradient norm :     0.0013208 Eh/α   predicted     0.0000000E+00 (-100.00%)
   displ. norm   :     0.0193121 α      lambda       -0.1831600E-05
   maximum displ.:     0.0079870 α      in ANC's #10, #1, #2, ...

........................................................................
.............................. CYCLE   44 ..............................
........................................................................

 iter      E             dE          RMSdq      gap      omega  full diag
   1    -69.4500002 -0.694500E+02  0.524E-03    4.27       0.0  T
   2    -69.4500002 -0.168013E-07  0.312E-03    4.27       4.4  T
   3    -69.4500002  0.736649E-07  0.153E-03    4.27       9.0  T
   4    -69.4500003 -0.899758E-07  0.182E-04    4.27      75.3  T
   5    -69.4500003 -0.536772E-09  0.917E-05    4.27     149.8  T
     SCC iter.                  ...        0 min,  0.059 sec
     gradient                   ...        0 min,  0.027 sec
 * total energy  :   -68.4510354 Eh     change       -0.4839304E-05 Eh
   gradient norm :     0.0003586 Eh/α   predicted    -0.2835947E-05 ( -41.40%)
   displ. norm   :     0.0204016 α      lambda       -0.1785526E-05
   maximum displ.:     0.0101180 α      in ANC's #1, #10, #2, ...

   *** GEOMETRY OPTIMIZATION CONVERGED AFTER 44 ITERATIONS ***

------------------------------------------------------------------------
 total energy gain   :        -0.0272575 Eh      -17.1043 kcal/mol
 total RMSD          :         0.8882904 a0        0.4701 Å
 total power (kW/mol):        -1.6264660 (step)  -18.3510 (real)
------------------------------------------------------------------------

 ANCopt (total)                0 d,  0 h,  0 min,  3.900 sec
 optimizer setup                ...        0 min,  0.001 sec (  0.021%)
 model hessian                  ...        0 min,  0.358 sec (  9.180%)
 ANC generation                 ...        0 min,  0.034 sec (  0.884%)
 coordinate transformation      ...        0 min,  0.012 sec (  0.315%)
 single point calculation       ...        0 min,  3.434 sec ( 88.051%)
 optimization log               ...        0 min,  0.025 sec (  0.634%)
 hessian update                 ...        0 min,  0.005 sec (  0.130%)
 rational function              ...        0 min,  0.023 sec (  0.598%)

================
 final structure:
================
53
 xtb: 6.6.0 (conda-forge)
C            6.39886010272599        0.33519107226859        2.12015651148952
C            4.90637333979908        0.64701520217602        2.09261648792100
C            4.28693793963331        0.50654716452308        0.70140183366773
C            4.23245594569107       -0.93704397813966        0.20842556742940
C            3.55751917875765       -1.05227344973897       -1.16522901535749
C            2.09957443429609       -0.69644856862321       -1.10727626678640
C            1.65191138608472        0.54941369948931       -1.50960372420400
C            0.30141401710306        0.88928772022949       -1.45793381915601
C           -0.63380568332973       -0.04659640895024       -1.02969912643730
C           -2.14006980288242        0.07512217831712       -0.95917781776937
C           -2.76330244842230        1.35611853961775       -1.42281285164975
C           -3.61300278508266        2.08050164048949       -0.70301792993693
C           -4.01759472713916        1.65964179653301        0.68245280583617
C           -3.91014243214403        0.14331347426625        0.83471353915799
C           -2.48544874945933       -0.28219666115713        0.49759559194955
C           -2.18187577599449       -1.77781273913552        0.71625784208924
O           -1.03339635068446       -2.20591068182239       -0.05899654188385
C           -0.16409482396280       -1.27215551626387       -0.54289851130493
C            1.18150749174201       -1.60188884448083       -0.59352022853341
C           -1.84231020129928       -2.03984476419391        2.18845890054121
C           -3.32591346904795       -2.69464114548533        0.27753025485092
C           -4.23981365480744        3.33661420537184       -1.22272360391802
O           -0.01585345099166        2.15802026605007       -1.84633808831694
H            6.80621508326347        0.52966881213161        3.10942802368143
H            6.58485703632220       -0.70727224151085        1.87664174712551
H            6.92873102650450        0.95740270316340        1.40237581810019
H            4.38355293286778       -0.01421453549395        2.78732357288643
H            4.75574328102171        1.67286848070926        2.43684037745610
H            4.86006934673830        1.10814376860086       -0.00805136395358
H            3.26950278000798        0.90411837613689        0.72564030771800
H            3.68127877438712       -1.54408112938660        0.92986540602243
H            5.24386464130103       -1.33788605046793        0.13034226429396
H            4.06814883137565       -0.39431965997291       -1.87001581758211
H            3.65863871331985       -2.08019246993252       -1.51913180429433
H            2.33997589916277        1.29539451669756       -1.87618943501800
H           -2.53530596493084       -0.72246987786991       -1.61027095891314
H           -2.56892722721231        1.61683893013977       -2.45642335206906
H           -3.37736399070849        2.15350350937304        1.41953225566906
H           -5.04252143226014        1.98177572815258        0.87389743055862
H           -4.61531188057070       -0.33173276864399        0.15256801489545
H           -4.16198674497169       -0.14779864755009        1.85492496293374
H           -1.80703076783846        0.29004453619946        1.14378744981148
H            1.49323876181762       -2.57158584121575       -0.23808461031813
H           -2.66952756544125       -1.74232226624202        2.82538540937703
H           -0.95457513552368       -1.47774566690928        2.47127001361488
H           -1.64115920299615       -3.09742747137782        2.33547258999701
H           -3.65642146804612       -2.44981057458303       -0.72857790807825
H           -2.96336946261123       -3.71933424436214        0.27423213042206
H           -4.16325503108155       -2.61592794497935        0.96218246228146
H           -3.86379558020473        3.58771305463888       -2.21111514215482
H           -4.03526582870620        4.16428717590420       -0.54515295151720
H           -5.32073697528195        3.21857555474476       -1.28127415032713
H           -0.94759233028634        2.34391204256661       -1.64020455229792

 Bond Distances (Angstroems)
 ---------------------------
C1-C2=1.5250         C1-H24=1.0874        C1-H25=1.0866        C1-H26=1.0877        C2-C1=1.5250         C2-C3=1.5293         
C2-H27=1.0923        C2-H28=1.0925        C3-C2=1.5293         C3-C4=1.5264         C3-H29=1.0926        C3-H30=1.0926        
C4-C3=1.5264         C4-C5=1.5348         C4-H31=1.0921        C4-H32=1.0907        C5-C4=1.5348         C5-C6=1.5019         
C5-H33=1.0910        C5-H34=1.0918        C6-C5=1.5019         C6-C7=1.3836         C6-C19=1.3880        C7-C6=1.3836         
C7-C8=1.3936         C7-H35=1.0790        C8-C7=1.3936         C8-C9=1.3906         C8-O23=1.3643        C9-C8=1.3906         
C9-C10=1.5128        C9-C18=1.3999        C10-C9=1.5128        C10-C11=1.4981       C10-C15=1.5392       C10-H36=1.1029       
C11-C10=1.4981       C11-C12=1.3285       C11-H37=1.0836       C12-C11=1.3285       C12-C13=1.5034       C12-C22=1.4969       
C13-C12=1.5034       C13-C14=1.5277       C13-H38=1.0941       C13-H39=1.0913       C14-C13=1.5277       C14-C15=1.5246       
C14-H40=1.0901       C14-H41=1.0904       C15-C10=1.5392       C15-C14=1.5246       C15-C16=1.5417       C15-H42=1.0979       
C16-C15=1.5417       C16-O17=1.4503       C16-C20=1.5334       C16-C21=1.5303       O17-C16=1.4503       O17-C18=1.3645       
C18-C9=1.3999        C18-O17=1.3645       C18-C19=1.3863       C19-C6=1.3880        C19-C18=1.3863       C19-H43=1.0788       
C20-C16=1.5334       C20-H44=1.0856       C20-H45=1.0881       C20-H46=1.0865       C21-C16=1.5303       C21-H47=1.0869       
C21-H48=1.0869       C21-H49=1.0845       C22-C12=1.4969       C22-H50=1.0869       C22-H51=1.0890       C22-H52=1.0889       
O23-C8=1.3643        O23-H53=0.9722       H24-C1=1.0874        H25-C1=1.0866        H26-C1=1.0877        H27-C2=1.0923        
H28-C2=1.0925        H29-C3=1.0926        H30-C3=1.0926        H31-C4=1.0921        H32-C4=1.0907        H33-C5=1.0910        
H34-C5=1.0918        H35-C7=1.0790        H36-C10=1.1029       H37-C11=1.0836       H38-C13=1.0941       H39-C13=1.0913       
H40-C14=1.0901       H41-C14=1.0904       H42-C15=1.0979       H43-C19=1.0788       H44-C20=1.0856       H45-C20=1.0881       
H46-C20=1.0865       H47-C21=1.0869       H48-C21=1.0869       H49-C21=1.0845       H50-C22=1.0869       H51-C22=1.0890       
H52-C22=1.0889       H53-O23=0.9722       
 C  H  Rav=1.0893 sigma=0.0048  Rmin=1.0788  Rmax=1.1029    29
 C  C  Rav=1.4771 sigma=0.0676  Rmin=1.3285  Rmax=1.5417    22
 O  H  Rav=0.9722 sigma=0.0000  Rmin=0.9722  Rmax=0.9722     1
 O  C  Rav=1.3930 sigma=0.0405  Rmin=1.3643  Rmax=1.4503     3

 selected bond angles (degree)
 --------------------
H24-C1-C2=110.27               H25-C1-C2=111.08               H25-C1-H24=108.14              H26-C1-C2=110.36               
H26-C1-H24=108.39              H26-C1-H25=108.51              C3-C2-C1=113.21                H27-C2-C1=109.46               
H27-C2-C3=109.21               H28-C2-C1=108.74               H28-C2-C3=108.48               H28-C2-H27=107.58              
C4-C3-C2=113.27                H29-C3-C2=109.13               H29-C3-C4=109.25               H30-C3-C2=108.88               
H30-C3-C4=108.55               H30-C3-H29=107.61              C5-C4-C3=112.07                H31-C4-C3=109.29               
H31-C4-C5=109.12               H32-C4-C3=109.73               H32-C4-C5=108.43               H32-C4-H31=108.12              
C6-C5-C4=112.00                H33-C5-C4=109.09               H33-C5-C6=109.66               H34-C5-C4=108.67               
H34-C5-C6=108.99               H34-C5-H33=108.36              C7-C6-C5=121.08                C19-C6-C5=120.12               
C19-C6-C7=118.75               C8-C7-C6=121.49                H35-C7-C6=121.00               H35-C7-C8=117.51               
C9-C8-C7=119.93                O23-C8-C7=116.21               O23-C8-C9=123.86               C10-C9-C8=129.04               
C18-C9-C8=118.07               C18-C9-C10=112.85              C11-C10-C9=117.94              C15-C10-C9=104.41              
C15-C10-C11=113.46             H36-C10-C9=105.73              H36-C10-C11=106.65             H36-C10-C15=108.09             

 selected dihedral angles (degree)
 ---------------------------------
C3-C2-C1-H24=175.27           C3-C2-C1-H25=295.14           C3-C2-C1-H26= 55.54           H27-C2-C1-H24=297.36          
H27-C2-C1-H25= 57.23          H27-C2-C1-H26=177.63          H28-C2-C1-H24= 54.63          H28-C2-C1-H25=174.50          
H28-C2-C1-H26=294.90          C4-C3-C2-C1= 68.58            C4-C3-C2-H27=306.35           C4-C3-C2-H28=189.37           
H29-C3-C2-C1=306.64           H29-C3-C2-H27=184.41          H29-C3-C2-H28= 67.43          H30-C3-C2-C1=189.44           
H30-C3-C2-H27= 67.22          H30-C3-C2-H28=310.23          C5-C4-C3-C2=177.79            C5-C4-C3-H29=299.67           
C5-C4-C3-H30= 56.74           H31-C4-C3-C2= 56.71           H31-C4-C3-H29=178.58          H31-C4-C3-H30=295.65          
H32-C4-C3-C2=298.31           H32-C4-C3-H29= 60.18          H32-C4-C3-H30=177.26          C6-C5-C4-C3=293.50            
C6-C5-C4-H31= 54.69           C6-C5-C4-H32=172.23           H33-C5-C4-C3= 55.08           H33-C5-C4-H31=176.27          
H33-C5-C4-H32=293.81          H34-C5-C4-C3=173.04           H34-C5-C4-H31=294.22          H34-C5-C4-H32= 51.77          
C7-C6-C5-C4=100.27            C7-C6-C5-H33=339.01           C7-C6-C5-H34=220.54           C19-C6-C5-C4=282.93           
C19-C6-C5-H33=161.67          C19-C6-C5-H34= 43.20          C8-C7-C6-C5=180.08            C8-C7-C6-C19=357.46           
H35-C7-C6-C5=  0.08           H35-C7-C6-C19=177.46          C9-C8-C7-C6=358.18            C9-C8-C7-H35=178.18           
O23-C8-C7-C6=178.28           O23-C8-C7-H35=358.28          C10-C9-C8-C7=183.37           C10-C9-C8-O23=  3.27          
C18-C9-C8-C7=  5.85           C18-C9-C8-O23=185.75          C11-C10-C9-C8=  1.01          C11-C10-C9-C18=178.63         
C15-C10-C9-C8=234.03          C15-C10-C9-C18= 51.66         H36-C10-C9-C8=120.12          H36-C10-C9-C18=297.74         
           -------------------------------------------------
          |                Final Singlepoint                |
           -------------------------------------------------

          ...................................................
          :                      SETUP                      :
          :.................................................:
          :  # basis functions                 122          :
          :  # atomic orbitals                 122          :
          :  # shells                           76          :
          :  # electrons                       126          :
          :  max. iterations                   250          :
          :  Hamiltonian                  GFN2-xTB          :
          :  restarted?                      false          :
          :  GBSA solvation                   true          :
          :  PC potential                    false          :
          :  electronic temp.          300.0000000     K    :
          :  accuracy                    1.0000000          :
          :  -> integral cutoff          0.2500000E+02      :
          :  -> integral neglect         0.1000000E-07      :
          :  -> SCF convergence          0.1000000E-05 Eh   :
          :  -> wf. convergence          0.1000000E-03 e    :
          :  Broyden damping             0.4000000          :
          ...................................................

 iter      E             dE          RMSdq      gap      omega  full diag
   1    -69.4500003 -0.694500E+02  0.371E-05    4.27       0.0  T
   2    -69.4500003 -0.899547E-11  0.228E-05    4.27     603.6  T
   3    -69.4500003 -0.450484E-11  0.156E-05    4.27     882.7  T

   *** convergence criteria satisfied after 3 iterations ***

         #    Occupation            Energy/Eh            Energy/eV
      -------------------------------------------------------------
         1        2.0000           -0.7034655             -19.1423
       ...           ...                  ...                  ...
        57        2.0000           -0.4191059             -11.4045
        58        2.0000           -0.4125852             -11.2270
        59        2.0000           -0.4100998             -11.1594
        60        2.0000           -0.4029136             -10.9638
        61        2.0000           -0.3806120             -10.3570
        62        2.0000           -0.3718833             -10.1195
        63        2.0000           -0.3680704             -10.0157 (HOMO)
        64                         -0.2112512              -5.7484 (LUMO)
        65                         -0.2046068              -5.5676
        66                         -0.1986453              -5.4054
        67                         -0.0864385              -2.3521
        68                         -0.0077466              -0.2108
       ...                                ...                  ...
       122                          0.6687284              18.1970
      -------------------------------------------------------------
                  HL-Gap            0.1568193 Eh            4.2673 eV
             Fermi-level           -0.2896608 Eh           -7.8821 eV

 SCC (total)                   0 d,  0 h,  0 min,  0.071 sec
 SCC setup                      ...        0 min,  0.002 sec (  2.322%)
 Dispersion                     ...        0 min,  0.001 sec (  1.002%)
 classical contributions        ...        0 min,  0.000 sec (  0.175%)
 integral evaluation            ...        0 min,  0.006 sec (  8.102%)
 iterations                     ...        0 min,  0.034 sec ( 48.168%)
 molecular gradient             ...        0 min,  0.028 sec ( 38.908%)
 printout                       ...        0 min,  0.001 sec (  1.287%)

         :::::::::::::::::::::::::::::::::::::::::::::::::::::
         ::                     SUMMARY                     ::
         :::::::::::::::::::::::::::::::::::::::::::::::::::::
         :: total energy             -68.451035368349 Eh    ::
         :: total w/o Gsasa/hb       -68.448281070667 Eh    ::
         :: gradient norm              0.000358704899 Eh/a0 ::
         :: HOMO-LUMO gap              4.267269265909 eV    ::
         ::.................................................::
         :: SCC energy               -69.450000264014 Eh    ::
         :: -> isotropic ES            0.055508002370 Eh    ::
         :: -> anisotropic ES          0.011742649146 Eh    ::
         :: -> anisotropic XC          0.027694560965 Eh    ::
         :: -> dispersion             -0.053935350252 Eh    ::
         :: -> Gsolv                  -0.008816632988 Eh    ::
         ::    -> Gelec               -0.006062335307 Eh    ::
         ::    -> Gsasa               -0.000396712735 Eh    ::
         ::    -> Ghb                 -0.003438344645 Eh    ::
         ::    -> Gshift               0.001080759698 Eh    ::
         :: repulsion energy           0.998242882201 Eh    ::
         :: add. restraining           0.000000000000 Eh    ::
         :: total charge               0.000000000000 e     ::
         :::::::::::::::::::::::::::::::::::::::::::::::::::::

           -------------------------------------------------
          |                Property Printout                |
           -------------------------------------------------

    * Orbital Energies and Occupations

         #    Occupation            Energy/Eh            Energy/eV
      -------------------------------------------------------------
         1        2.0000           -0.7034655             -19.1423
       ...           ...                  ...                  ...
        51        2.0000           -0.4377388             -11.9115
        52        2.0000           -0.4361604             -11.8685
        53        2.0000           -0.4309616             -11.7271
        54        2.0000           -0.4288828             -11.6705
        55        2.0000           -0.4263608             -11.6019
        56        2.0000           -0.4204820             -11.4419
        57        2.0000           -0.4191059             -11.4045
        58        2.0000           -0.4125852             -11.2270
        59        2.0000           -0.4100998             -11.1594
        60        2.0000           -0.4029136             -10.9638
        61        2.0000           -0.3806120             -10.3570
        62        2.0000           -0.3718833             -10.1195
        63        2.0000           -0.3680704             -10.0157 (HOMO)
        64                         -0.2112512              -5.7484 (LUMO)
        65                         -0.2046068              -5.5676
        66                         -0.1986453              -5.4054
        67                         -0.0864385              -2.3521
        68                         -0.0077466              -0.2108
        69                          0.0406556               1.1063
        70                          0.0587949               1.5999
        71                          0.0712027               1.9375
        72                          0.0771060               2.0982
        73                          0.0803165               2.1855
        74                          0.0873823               2.3778
       ...                                ...                  ...
       122                          0.6687284              18.1970
      -------------------------------------------------------------
                  HL-Gap            0.1568193 Eh            4.2673 eV
             Fermi-level           -0.2896608 Eh           -7.8821 eV

     #   Z          covCN         q      C6AA      α(0)
     1   6 C        3.751    -0.111    22.678     6.791
     2   6 C        3.800    -0.058    21.612     6.619
     3   6 C        3.802    -0.062    21.683     6.630
     4   6 C        3.802    -0.058    21.614     6.619
     5   6 C        3.809    -0.068    21.803     6.647
     6   6 C        2.969     0.008    27.840     8.655
     7   6 C        2.926    -0.084    30.095     8.996
     8   6 C        2.845     0.131    25.136     8.217
     9   6 C        2.978    -0.067    29.668     8.935
    10   6 C        3.872    -0.007    20.663     6.464
    11   6 C        2.898    -0.077    29.923     8.969
    12   6 C        2.943     0.005    27.914     8.665
    13   6 C        3.813    -0.069    21.803     6.646
    14   6 C        3.807    -0.064    21.716     6.634
    15   6 C        3.872    -0.028    21.025     6.520
    16   6 C        3.783     0.140    18.344     6.101
    17   8 O        1.702    -0.327    19.463     5.956
    18   6 C        2.870     0.127    25.204     8.230
    19   6 C        2.922    -0.085    30.119     9.000
    20   6 C        3.756    -0.122    22.893     6.822
    21   6 C        3.755    -0.123    22.918     6.826
    22   6 C        3.759    -0.124    22.937     6.828
    23   8 O        1.659    -0.447    21.791     6.302
    24   1 H        0.925     0.036     2.504     2.475
    25   1 H        0.925     0.037     2.484     2.465
    26   1 H        0.925     0.038     2.481     2.463
    27   1 H        0.924     0.030     2.586     2.515
    28   1 H        0.924     0.031     2.578     2.511
    29   1 H        0.924     0.033     2.539     2.492
    30   1 H        0.924     0.028     2.609     2.526
    31   1 H        0.924     0.033     2.541     2.493
    32   1 H        0.924     0.040     2.451     2.448
    33   1 H        0.924     0.043     2.415     2.430
    34   1 H        0.924     0.045     2.387     2.416
    35   1 H        0.926     0.045     2.387     2.416
    36   1 H        0.923     0.040     2.450     2.448
    37   1 H        0.925     0.032     2.560     2.502
    38   1 H        0.924     0.048     2.341     2.393
    39   1 H        0.924     0.050     2.314     2.379
    40   1 H        0.925     0.045     2.385     2.415
    41   1 H        0.924     0.038     2.471     2.458
    42   1 H        0.924     0.030     2.582     2.513
    43   1 H        0.926     0.042     2.421     2.433
    44   1 H        0.925     0.053     2.289     2.366
    45   1 H        0.925     0.041     2.434     2.440
    46   1 H        0.925     0.054     2.266     2.354
    47   1 H        0.925     0.046     2.368     2.407
    48   1 H        0.925     0.056     2.242     2.341
    49   1 H        0.925     0.058     2.220     2.330
    50   1 H        0.925     0.044     2.399     2.422
    51   1 H        0.925     0.055     2.253     2.347
    52   1 H        0.925     0.056     2.247     2.344
    53   1 H        0.804     0.341     0.610     1.227

 Mol. C6AA /au·bohr⁶  :      24848.955119
 Mol. C8AA /au·bohr⁸  :     566572.316704
 Mol. α(0) /au        :        239.837926


Wiberg/Mayer (AO) data.
largest (>0.10) Wiberg bond orders for each atom

 ---------------------------------------------------------------------------
     #   Z sym  total        # sym  WBO       # sym  WBO       # sym  WBO
 ---------------------------------------------------------------------------
     1   6 C    3.996 --     2 C    1.020    26 H    0.987    24 H    0.987
                            25 H    0.986
     2   6 C    3.998 --     1 C    1.020     3 C    1.007    28 H    0.979
                            27 H    0.978
     3   6 C    3.997 --     4 C    1.010     2 C    1.007    29 H    0.977
                            30 H    0.976
     4   6 C    3.996 --     3 C    1.010     5 C    0.988    31 H    0.977
                            32 H    0.974
     5   6 C    3.995 --     6 C    1.013     4 C    0.988    33 H    0.975
                            34 H    0.969
     6   6 C    3.986 --     7 C    1.426    19 C    1.400     5 C    1.013
     7   6 C    3.979 --     6 C    1.426     8 C    1.357    35 H    0.966
     8   6 C    3.938 --     9 C    1.368     7 C    1.357    23 O    1.066
     9   6 C    3.974 --     8 C    1.368    18 C    1.333    10 C    0.985
    10   6 C    3.994 --    11 C    1.013     9 C    0.985    15 C    0.968
                            36 H    0.934
    11   6 C    3.984 --    12 C    1.860    10 C    1.013    37 H    0.955
    12   6 C    3.985 --    11 C    1.860    22 C    1.027    13 C    1.011
    13   6 C    3.997 --    12 C    1.011    14 C    1.003    39 H    0.969
                            38 H    0.959
    14   6 C    3.995 --    13 C    1.003    15 C    0.997    40 H    0.975
                            41 H    0.974
    15   6 C    3.993 --    14 C    0.997    16 C    0.971    10 C    0.968
                            42 H    0.965
    16   6 C    3.931 --    21 C    0.996    20 C    0.990    15 C    0.971
                            17 O    0.914
    17   8 O    2.173 --    18 C    1.051    16 C    0.914
    18   6 C    3.936 --    19 C    1.385     9 C    1.333    17 O    1.051
    19   6 C    3.981 --     6 C    1.400    18 C    1.385    43 H    0.967
    20   6 C    3.992 --    16 C    0.990    45 H    0.985    46 H    0.984
                            44 H    0.981
    21   6 C    3.992 --    16 C    0.996    48 H    0.983    49 H    0.982
                            47 H    0.981
    22   6 C    3.994 --    12 C    1.027    50 H    0.984    51 H    0.971
                            52 H    0.969
    23   8 O    2.078 --     8 C    1.066    53 H    0.834
    24   1 H    0.999 --     1 C    0.987
    25   1 H    0.999 --     1 C    0.986
    26   1 H    0.999 --     1 C    0.987
    27   1 H    0.999 --     2 C    0.978
    28   1 H    0.999 --     2 C    0.979
    29   1 H    0.999 --     3 C    0.977
    30   1 H    0.999 --     3 C    0.976
    31   1 H    0.999 --     4 C    0.977
    32   1 H    0.998 --     4 C    0.974
    33   1 H    0.998 --     5 C    0.975
    34   1 H    0.997 --     5 C    0.969
    35   1 H    0.998 --     7 C    0.966
    36   1 H    0.998 --    10 C    0.934
    37   1 H    0.999 --    11 C    0.955
    38   1 H    0.998 --    13 C    0.959
    39   1 H    0.997 --    13 C    0.969
    40   1 H    0.998 --    14 C    0.975
    41   1 H    0.998 --    14 C    0.974
    42   1 H    0.999 --    15 C    0.965
    43   1 H    0.998 --    19 C    0.967
    44   1 H    0.997 --    20 C    0.981
    45   1 H    0.998 --    20 C    0.985
    46   1 H    0.997 --    20 C    0.984
    47   1 H    0.998 --    21 C    0.981
    48   1 H    0.997 --    21 C    0.983
    49   1 H    0.996 --    21 C    0.982
    50   1 H    0.998 --    22 C    0.984
    51   1 H    0.996 --    22 C    0.971
    52   1 H    0.996 --    22 C    0.969
    53   1 H    0.883 --    23 O    0.834
 ---------------------------------------------------------------------------

Topologies differ in total number of bonds
Writing topology from bond orders to xtbtopo.mol

molecular dipole:
                 x           y           z       tot (Debye)
 q only:       -1.251       0.355       0.737
   full:       -1.439       0.359       0.779       4.258
molecular quadrupole (traceless):
                xx          xy          yy          xz          yz          zz
 q only:       13.909      -6.626      -6.365      -1.342      -0.650      -7.544
  q+dip:       14.208      -7.710      -6.280      -1.332      -0.568      -7.928
   full:       13.645      -7.549      -6.871      -0.633       0.242      -6.773

           -------------------------------------------------
          |                Geometry Summary                 |
           -------------------------------------------------

      molecular mass/u    :      314.4624862
   center of mass at/Å    :       -0.1445221      -0.0310486      -0.1126057
  moments of inertia/u·Å² :        0.1245263E+04   0.3623440E+04   0.4092545E+04
rotational constants/cm⁻¹ :        0.1353740E-01   0.4652384E-02   0.4119107E-02

 * 48 selected distances

     #   Z          #   Z                                           value/Å
     1   6 C        2   6 C                                       1.5249623
     2   6 C        3   6 C                                       1.5293496
     3   6 C        4   6 C                                       1.5264173
     4   6 C        5   6 C                                       1.5348436
     6   6 C        7   6 C                                       1.3836339
     7   6 C        8   6 C                                       1.3935665
     8   6 C        9   6 C                                       1.3906474
    11   6 C       12   6 C                                       1.3284678
    13   6 C       14   6 C                                       1.5277373
    10   6 C       15   6 C                                       1.5392052 (max)
    14   6 C       15   6 C                                       1.5246180
     9   6 C       18   6 C                                       1.3998566
    17   8 O       18   6 C                                       1.3644579
     6   6 C       19   6 C                                       1.3880254
    18   6 C       19   6 C                                       1.3863378
    16   6 C       20   6 C                                       1.5334086
    16   6 C       21   6 C                                       1.5303199
     8   6 C       23   8 O                                       1.3642577
     1   6 C       24   1 H                                       1.0873905
     1   6 C       25   1 H                                       1.0865654
     1   6 C       26   1 H                                       1.0877131
     2   6 C       27   1 H                                       1.0923297
     2   6 C       28   1 H                                       1.0924993
     3   6 C       29   1 H                                       1.0925759
     3   6 C       30   1 H                                       1.0926229
     4   6 C       31   1 H                                       1.0921383
     4   6 C       32   1 H                                       1.0907425
     5   6 C       33   1 H                                       1.0910410
     5   6 C       34   1 H                                       1.0918288
     7   6 C       35   1 H                                       1.0790299
    10   6 C       36   1 H                                       1.1028541
    11   6 C       37   1 H                                       1.0835625
    13   6 C       38   1 H                                       1.0941120
    13   6 C       39   1 H                                       1.0912819
    14   6 C       40   1 H                                       1.0900714
    14   6 C       41   1 H                                       1.0904143
    15   6 C       42   1 H                                       1.0978502
    19   6 C       43   1 H                                       1.0788064
    20   6 C       44   1 H                                       1.0855799
    20   6 C       45   1 H                                       1.0881228
    20   6 C       46   1 H                                       1.0865340
    21   6 C       47   1 H                                       1.0869367
    21   6 C       48   1 H                                       1.0869431
    21   6 C       49   1 H                                       1.0844748
    22   6 C       50   1 H                                       1.0869031
    22   6 C       51   1 H                                       1.0890292
    22   6 C       52   1 H                                       1.0889246
    23   8 O       53   1 H                                       0.9722059 (min)

 * 4 distinct bonds (by element types)

   Z      Z             #   av. dist./Å        max./Å        min./Å
   1 H    6 C          29     1.0892717     1.1028541     1.0788064
   6 C    6 C          16     1.4650873     1.5392052     1.3284678
   1 H    8 O           1     0.9722059     0.9722059     0.9722059
   6 C    8 O           2     1.3643578     1.3644579     1.3642577


optimized geometry written to: xtbopt.xyz


           -------------------------------------------------
          | TOTAL ENERGY              -68.451035368349 Eh   |
          | GRADIENT NORM               0.000358704899 Eh/α |
          | HOMO-LUMO GAP               4.267269265909 eV   |
           -------------------------------------------------

------------------------------------------------------------------------
 * finished run on 2024/09/07 at 00:23:42.140     
------------------------------------------------------------------------
 total:
 * wall-time:     0 d,  0 h,  0 min, 29.139 sec
 *  cpu-time:     0 d,  0 h,  0 min, 17.031 sec
 * ratio c/w:     0.584 speedup
 SCF:
 * wall-time:     0 d,  0 h,  0 min,  0.150 sec
 *  cpu-time:     0 d,  0 h,  0 min,  0.636 sec
 * ratio c/w:     4.239 speedup
 ANC optimizer:
 * wall-time:     0 d,  0 h,  0 min,  3.977 sec
 *  cpu-time:     0 d,  0 h,  0 min, 14.638 sec
 * ratio c/w:     3.681 speedup

