      -----------------------------------------------------------      
     |                   =====================                   |     
     |                           x T B                           |     
     |                   =====================                   |     
     |                         S. Grimme                         |     
     |          Mulliken Center for Theoretical Chemistry        |     
     |                    University of Bonn                     |     
      -----------------------------------------------------------      

   * xtb version 6.6.0 (conda-forge) compiled by 'runner@Mac-1676020848589.local' on 2023-02-10

   xtb is free software: you can redistribute it and/or modify it under
   the terms of the GNU Lesser General Public License as published by
   the Free Software Foundation, either version 3 of the License, or
   (at your option) any later version.
   
   xtb is distributed in the hope that it will be useful,
   but WITHOUT ANY WARRANTY; without even the implied warranty of
   MERCHANTABILITY or FITNESS FOR A PARTICULAR PURPOSE.  See the
   GNU Lesser General Public License for more details.
   
   Cite this work as:
   * C. Bannwarth, E. Caldeweyher, S. Ehlert, A. Hansen, P. Pracht,
     J. Seibert, S. Spicher, S. Grimme, WIREs Comput. Mol. Sci., 2020, 11,
     e01493. DOI: 10.1002/wcms.1493
   
   for GFN2-xTB:
   * C. Bannwarth, S. Ehlert and S. Grimme., J. Chem. Theory Comput., 2019,
     15, 1652-1671. DOI: 10.1021/acs.jctc.8b01176
   for GFN1-xTB:
   * S. Grimme, C. Bannwarth, P. Shushkov, J. Chem. Theory Comput., 2017,
     13, 1989-2009. DOI: 10.1021/acs.jctc.7b00118
   for GFN0-xTB:
   * P. Pracht, E. Caldeweyher, S. Ehlert, S. Grimme, ChemRxiv, 2019, preprint.
     DOI: 10.26434/chemrxiv.8326202.v1
   for GFN-FF:
   * S. Spicher and S. Grimme, Angew. Chem. Int. Ed., 2020, 59, 15665-15673.
     DOI: 10.1002/anie.202004239
   
   for ALPB and GBSA implicit solvation:
   * S. Ehlert, M. Stahn, S. Spicher, S. Grimme, J. Chem. Theory Comput.,
     2021, 17, 4250-4261. DOI: 10.1021/acs.jctc.1c00471
   
   for DFT-D4:
   * E. Caldeweyher, C. Bannwarth and S. Grimme, J. Chem. Phys., 2017,
     147, 034112. DOI: 10.1063/1.4993215
   * E. Caldeweyher, S. Ehlert, A. Hansen, H. Neugebauer, S. Spicher,
     C. Bannwarth and S. Grimme, J. Chem. Phys., 2019, 150, 154122.
     DOI: 10.1063/1.5090222
   * E. Caldeweyher, J.-M. Mewes, S. Ehlert and S. Grimme, Phys. Chem. Chem. Phys.
     2020, 22, 8499-8512. DOI: 10.1039/D0CP00502A
   
   for sTDA-xTB:
   * S. Grimme and C. Bannwarth, J. Chem. Phys., 2016, 145, 054103.
     DOI: 10.1063/1.4959605
   
   in the mass-spec context:
   * V. Asgeirsson, C. Bauer and S. Grimme, Chem. Sci., 2017, 8, 4879.
     DOI: 10.1039/c7sc00601b
   * J. Koopman and S. Grimme, ACS Omega 2019, 4, 12, 15120-15133.
     DOI: 10.1021/acsomega.9b02011
   
   for metadynamics refer to:
   * S. Grimme, J. Chem. Theory Comput., 2019, 155, 2847-2862
     DOI: 10.1021/acs.jctc.9b00143
   
   for SPH calculations refer to:
   * S. Spicher and S. Grimme, J. Chem. Theory Comput., 2021, 17, 1701-1714
     DOI: 10.1021/acs.jctc.0c01306
   
   with help from (in alphabetical order)
   P. Atkinson, C. Bannwarth, F. Bohle, G. Brandenburg, E. Caldeweyher
   M. Checinski, S. Dohm, S. Ehlert, S. Ehrlich, I. Gerasimov, C. Hölzer
   A. Katbashev, J. Koopman, C. Lavigne, S. Lehtola, F. März, M. Müller,
   F. Musil, H. Neugebauer, J. Pisarek, C. Plett, P. Pracht, F. Pultar,
   J. Seibert, P. Shushkov, S. Spicher, M. Stahn, M. Steiner, T. Strunk,
   J. Stückrath, T. Rose, and J. Unsleber
   
 * started run on 2024/09/07 at 14:04:11.593     

           -------------------------------------------------
          |                Calculation Setup                |
           -------------------------------------------------

          program call               : xtb alizarin.xyz --opt --gfn2
          coordinate file            : alizarin.xyz
          omp threads                :                     8

   ID    Z sym.   atoms
    1    6 C      1-7, 9-11, 13-16
    2    8 O      8, 12, 17, 18
    3    1 H      19-26

           -------------------------------------------------
          |                 G F N 2 - x T B                 |
           -------------------------------------------------

        Reference                      10.1021/acs.jctc.8b01176
      * Hamiltonian:
        H0-scaling (s, p, d)           1.850000    2.230000    2.230000
        zeta-weighting                 0.500000
      * Dispersion:
        s8                             2.700000
        a1                             0.520000
        a2                             5.000000
        s9                             5.000000
      * Repulsion:
        kExp                           1.500000    1.000000
        rExp                           1.000000
      * Coulomb:
        alpha                          2.000000
        third order                    shell-resolved
        anisotropic                    true
        a3                             3.000000
        a5                             4.000000
        cn-shift                       1.200000
        cn-exp                         4.000000
        max-rad                        5.000000


          ...................................................
          :                      SETUP                      :
          :.................................................:
          :  # basis functions                  80          :
          :  # atomic orbitals                  80          :
          :  # shells                           44          :
          :  # electrons                        88          :
          :  max. iterations                   250          :
          :  Hamiltonian                  GFN2-xTB          :
          :  restarted?                      false          :
          :  GBSA solvation                  false          :
          :  PC potential                    false          :
          :  electronic temp.          300.0000000     K    :
          :  accuracy                    1.0000000          :
          :  -> integral cutoff          0.2500000E+02      :
          :  -> integral neglect         0.1000000E-07      :
          :  -> SCF convergence          0.1000000E-05 Eh   :
          :  -> wf. convergence          0.1000000E-03 e    :
          :  Broyden damping             0.4000000          :
          ...................................................

 iter      E             dE          RMSdq      gap      omega  full diag
   1    -50.8499553 -0.508500E+02  0.558E+00    1.83       0.0  T
   2    -50.9025370 -0.525817E-01  0.302E+00    1.60       1.0  T
   3    -50.8918057  0.107313E-01  0.167E+00    1.87       1.0  T
   4    -50.9152220 -0.234163E-01  0.322E-01    1.76       1.0  T
   5    -50.9173837 -0.216174E-02  0.125E-01    1.75       1.0  T
   6    -50.9176093 -0.225548E-03  0.544E-02    1.76       1.0  T
   7    -50.9176427 -0.334241E-04  0.197E-02    1.76       1.0  T
   8    -50.9176473 -0.459534E-05  0.909E-03    1.76       2.2  T
   9    -50.9176480 -0.768584E-06  0.339E-03    1.76       5.8  T
  10    -50.9176481 -0.907792E-07  0.149E-03    1.76      13.1  T
  11    -50.9176482 -0.356710E-07  0.615E-04    1.76      31.9  T
  12    -50.9176482 -0.246159E-08  0.283E-04    1.76      69.3  T

   *** convergence criteria satisfied after 12 iterations ***

         #    Occupation            Energy/Eh            Energy/eV
      -------------------------------------------------------------
         1        2.0000           -0.7277265             -19.8024
       ...           ...                  ...                  ...
        38        2.0000           -0.4376938             -11.9103
        39        2.0000           -0.4244496             -11.5499
        40        2.0000           -0.4213776             -11.4663
        41        2.0000           -0.4208407             -11.4517
        42        2.0000           -0.4013469             -10.9212
        43        2.0000           -0.3978288             -10.8255
        44        2.0000           -0.3884171             -10.5694 (HOMO)
        45                         -0.3238192              -8.8116 (LUMO)
        46                         -0.2791692              -7.5966
        47                         -0.2499677              -6.8020
        48                         -0.2435382              -6.6270
        49                         -0.1942716              -5.2864
       ...                                ...                  ...
        80                          0.6551800              17.8284
      -------------------------------------------------------------
                  HL-Gap            0.0645979 Eh            1.7578 eV
             Fermi-level           -0.3561182 Eh           -9.6905 eV

 SCC (total)                   0 d,  0 h,  0 min,  0.062 sec
 SCC setup                      ...        0 min,  0.007 sec ( 11.298%)
 Dispersion                     ...        0 min,  0.002 sec (  3.113%)
 classical contributions        ...        0 min,  0.000 sec (  0.769%)
 integral evaluation            ...        0 min,  0.004 sec (  7.032%)
 iterations                     ...        0 min,  0.041 sec ( 66.746%)
 molecular gradient             ...        0 min,  0.006 sec (  8.920%)
 printout                       ...        0 min,  0.001 sec (  2.066%)

         :::::::::::::::::::::::::::::::::::::::::::::::::::::
         ::                     SUMMARY                     ::
         :::::::::::::::::::::::::::::::::::::::::::::::::::::
         :: total energy             -50.283910482164 Eh    ::
         :: gradient norm              0.138033786004 Eh/a0 ::
         :: HOMO-LUMO gap              1.757797479536 eV    ::
         ::.................................................::
         :: SCC energy               -50.917648170794 Eh    ::
         :: -> isotropic ES            0.094258601339 Eh    ::
         :: -> anisotropic ES          0.002482496223 Eh    ::
         :: -> anisotropic XC          0.011832804613 Eh    ::
         :: -> dispersion             -0.029434367109 Eh    ::
         :: repulsion energy           0.633799764976 Eh    ::
         :: add. restraining           0.000000000000 Eh    ::
         :: total charge              -0.000000000000 e     ::
         :::::::::::::::::::::::::::::::::::::::::::::::::::::

      ----------------------------------------------------------- 
     |                   =====================                   |
     |                        A N C O P T                        |
     |                   =====================                   |
     |               Approximate Normal Coordinate               |
     |                Rational Function Optimizer                |
      ----------------------------------------------------------- 

          ...................................................
          :                      SETUP                      :
          :.................................................:
          :   optimization level            normal          :
          :   max. optcycles                   200          :
          :   ANC micro-cycles                  20          :
          :   degrees of freedom                72          :
          :.................................................:
          :   RF solver                   davidson          :
          :   write xtbopt.log                true          :
          :   linear?                        false          :
          :   energy convergence         0.5000000E-05 Eh   :
          :   grad. convergence          0.1000000E-02 Eh/α :
          :   maxmium RF displ.          1.0000000          :
          :   Hlow (freq-cutoff)         0.1000000E-01      :
          :   Hmax (freq-cutoff)         5.0000000          :
          :   S6 in model hess.         20.0000000          :
          ...................................................

generating ANC from model Hessian ...
Using Lindh-Hessian (1995)
 Shifting diagonal of input Hessian by    8.7710711596174409E-003
 Lowest  eigenvalues of input Hessian
    0.000000    0.000000    0.000000    0.000000    0.000000    0.000000
    0.010000    0.010818    0.013649    0.016402    0.017510    0.019656
    0.022468    0.024193    0.028404    0.029441    0.030793    0.036391
 Highest eigenvalues
    1.887333    1.915601    1.963720    1.981183    2.015688    2.099026


........................................................................
.............................. CYCLE    1 ..............................
........................................................................

 iter      E             dE          RMSdq      gap      omega  full diag
   1    -50.9176482 -0.509176E+02  0.118E-04    1.76       0.0  T
   2    -50.9176482 -0.148106E-09  0.734E-05    1.76     267.2  T
   3    -50.9176482 -0.111903E-09  0.348E-05    1.76     563.3  T
     SCC iter.                  ...        0 min,  0.005 sec
     gradient                   ...        0 min,  0.004 sec
 * total energy  :   -50.2839105 Eh     change       -0.6172485E-09 Eh
   gradient norm :     0.1380343 Eh/α   predicted     0.0000000E+00 (-100.00%)
   displ. norm   :     0.3821894 α      lambda       -0.2598694E-01
   maximum displ.:     0.2188098 α      in ANC's #13, #16, #23, ...

........................................................................
.............................. CYCLE    2 ..............................
........................................................................

 iter      E             dE          RMSdq      gap      omega  full diag
   1    -50.9776830 -0.509777E+02  0.282E-01    1.81       0.0  T
   2    -50.9783825 -0.699530E-03  0.173E-01    1.83       1.0  T
   3    -50.9784534 -0.708545E-04  0.946E-02    1.83       1.0  T
   4    -50.9784608 -0.743760E-05  0.344E-02    1.83       1.0  T
   5    -50.9784850 -0.241438E-04  0.675E-03    1.83       2.9  T
   6    -50.9784855 -0.539740E-06  0.451E-03    1.83       4.3  T
   7    -50.9784859 -0.333920E-06  0.166E-03    1.83      11.8  T
   8    -50.9784859 -0.449835E-08  0.933E-04    1.83      21.0  T
   9    -50.9784859 -0.102685E-07  0.320E-04    1.83      61.2  T
     SCC iter.                  ...        0 min,  0.023 sec
     gradient                   ...        0 min,  0.003 sec
 * total energy  :   -50.3030170 Eh     change       -0.1910649E-01 Eh
   gradient norm :     0.0560556 Eh/α   predicted    -0.1490468E-01 ( -21.99%)
   displ. norm   :     0.3719792 α      lambda       -0.1054417E-01
   maximum displ.:     0.2375572 α      in ANC's #13, #16, #23, ...

........................................................................
.............................. CYCLE    3 ..............................
........................................................................

 iter      E             dE          RMSdq      gap      omega  full diag
   1    -51.0132353 -0.510132E+02  0.269E-01    1.84       0.0  T
   2    -51.0136671 -0.431801E-03  0.160E-01    1.85       1.0  T
   3    -51.0137013 -0.342256E-04  0.873E-02    1.85       1.0  T
   4    -51.0137314 -0.300701E-04  0.289E-02    1.85       1.0  T
   5    -51.0137486 -0.172287E-04  0.663E-03    1.85       3.0  T
   6    -51.0137495 -0.853846E-06  0.395E-03    1.85       5.0  T
   7    -51.0137497 -0.226146E-06  0.162E-03    1.85      12.1  T
   8    -51.0137497 -0.471066E-08  0.764E-04    1.85      25.7  T
   9    -51.0137497 -0.576796E-08  0.272E-04    1.85      72.1  T
     SCC iter.                  ...        0 min,  0.021 sec
     gradient                   ...        0 min,  0.003 sec
 * total energy  :   -50.3090067 Eh     change       -0.5989697E-02 Eh
   gradient norm :     0.0170530 Eh/α   predicted    -0.6002024E-02 (   0.21%)
   displ. norm   :     0.1390575 α      lambda       -0.9290164E-03
   maximum displ.:     0.0977737 α      in ANC's #13, #16, #11, ...

........................................................................
.............................. CYCLE    4 ..............................
........................................................................

 iter      E             dE          RMSdq      gap      omega  full diag
   1    -51.0158753 -0.510159E+02  0.840E-02    1.83       0.0  T
   2    -51.0158786 -0.325885E-05  0.494E-02    1.83       1.0  T
   3    -51.0158736  0.503241E-05  0.173E-02    1.83       1.1  T
   4    -51.0158800 -0.646398E-05  0.308E-03    1.83       6.4  T
   5    -51.0158801 -0.590497E-07  0.187E-03    1.83      10.5  T
   6    -51.0158801 -0.260840E-07  0.110E-03    1.83      17.8  T
   7    -51.0158801 -0.806234E-08  0.342E-04    1.83      57.4  T
   8    -51.0158801 -0.258679E-08  0.111E-04    1.83     176.4  T
     SCC iter.                  ...        0 min,  0.017 sec
     gradient                   ...        0 min,  0.006 sec
 * total energy  :   -50.3095982 Eh     change       -0.5915229E-03 Eh
   gradient norm :     0.0111352 Eh/α   predicted    -0.4735231E-03 ( -19.95%)
   displ. norm   :     0.0629708 α      lambda       -0.2110395E-03
   maximum displ.:     0.0350363 α      in ANC's #13, #16, #11, ...

........................................................................
.............................. CYCLE    5 ..............................
........................................................................

 iter      E             dE          RMSdq      gap      omega  full diag
   1    -51.0161351 -0.510161E+02  0.314E-02    1.82       0.0  T
   2    -51.0161380 -0.295172E-05  0.200E-02    1.82       1.0  T
   3    -51.0161381 -0.112150E-06  0.116E-02    1.82       1.7  T
   4    -51.0161397 -0.160280E-05  0.254E-03    1.82       7.7  T
   5    -51.0161399 -0.164919E-06  0.904E-04    1.82      21.7  T
   6    -51.0161399 -0.146729E-07  0.493E-04    1.82      39.7  T
     SCC iter.                  ...        0 min,  0.013 sec
     gradient                   ...        0 min,  0.004 sec
 * total energy  :   -50.3097297 Eh     change       -0.1314831E-03 Eh
   gradient norm :     0.0048123 Eh/α   predicted    -0.1059714E-03 ( -19.40%)
   displ. norm   :     0.0278480 α      lambda       -0.4285710E-04
   maximum displ.:     0.0171381 α      in ANC's #5, #11, #41, ...

........................................................................
.............................. CYCLE    6 ..............................
........................................................................

 iter      E             dE          RMSdq      gap      omega  full diag
   1    -51.0160582 -0.510161E+02  0.150E-02    1.82       0.0  T
   2    -51.0160590 -0.777971E-06  0.920E-03    1.82       2.1  T
   3    -51.0160590 -0.643450E-07  0.521E-03    1.82       3.8  T
   4    -51.0160593 -0.306871E-06  0.131E-03    1.82      15.0  T
   5    -51.0160594 -0.320694E-07  0.455E-04    1.82      43.1  T
   6    -51.0160594 -0.534043E-08  0.186E-04    1.82     105.3  T
     SCC iter.                  ...        0 min,  0.015 sec
     gradient                   ...        0 min,  0.004 sec
 * total energy  :   -50.3097568 Eh     change       -0.2710809E-04 Eh
   gradient norm :     0.0015718 Eh/α   predicted    -0.2144612E-04 ( -20.89%)
   displ. norm   :     0.0247878 α      lambda       -0.8589885E-05
   maximum displ.:     0.0187506 α      in ANC's #5, #11, #13, ...

........................................................................
.............................. CYCLE    7 ..............................
........................................................................

 iter      E             dE          RMSdq      gap      omega  full diag
   1    -51.0158680 -0.510159E+02  0.121E-02    1.82       0.0  T
   2    -51.0158681 -0.150457E-06  0.721E-03    1.82       2.7  T
   3    -51.0158680  0.159703E-06  0.340E-03    1.82       5.8  T
   4    -51.0158682 -0.227830E-06  0.464E-04    1.82      42.3  T
   5    -51.0158682 -0.211392E-08  0.248E-04    1.82      79.1  T
     SCC iter.                  ...        0 min,  0.013 sec
     gradient                   ...        0 min,  0.005 sec
 * total energy  :   -50.3097620 Eh     change       -0.5223064E-05 Eh
   gradient norm :     0.0008569 Eh/α   predicted    -0.4309330E-05 ( -17.49%)
   displ. norm   :     0.0037024 α      lambda       -0.9039102E-06
   maximum displ.:     0.0021620 α      in ANC's #11, #28, #27, ...

........................................................................
.............................. CYCLE    8 ..............................
........................................................................

 iter      E             dE          RMSdq      gap      omega  full diag
   1    -51.0159194 -0.510159E+02  0.380E-03    1.82       0.0  T
   2    -51.0159195 -0.322818E-07  0.232E-03    1.82       8.5  T
   3    -51.0159194  0.929577E-08  0.129E-03    1.82      15.2  T
   4    -51.0159195 -0.256757E-07  0.275E-04    1.82      71.2  T
   5    -51.0159195 -0.186843E-08  0.853E-05    1.82     229.9  T
     SCC iter.                  ...        0 min,  0.008 sec
     gradient                   ...        0 min,  0.010 sec
 * total energy  :   -50.3097628 Eh     change       -0.7460845E-06 Eh
   gradient norm :     0.0001938 Eh/α   predicted    -0.4606961E-06 ( -38.25%)
   displ. norm   :     0.0013599 α      lambda       -0.5128459E-07
   maximum displ.:     0.0006969 α      in ANC's #5, #11, #12, ...

   *** GEOMETRY OPTIMIZATION CONVERGED AFTER 8 ITERATIONS ***

------------------------------------------------------------------------
 total energy gain   :        -0.0258523 Eh      -16.2225 kcal/mol
 total RMSD          :         0.1814248 a0        0.0960 Å
 total power (kW/mol):        -8.4843923 (step) -344.6539 (real)
------------------------------------------------------------------------

 ANCopt (total)                0 d,  0 h,  0 min,  0.197 sec
 optimizer setup                ...        0 min,  0.001 sec (  0.652%)
 model hessian                  ...        0 min,  0.007 sec (  3.332%)
 ANC generation                 ...        0 min,  0.003 sec (  1.637%)
 coordinate transformation      ...        0 min,  0.000 sec (  0.051%)
 single point calculation       ...        0 min,  0.173 sec ( 87.700%)
 optimization log               ...        0 min,  0.004 sec (  2.060%)
 hessian update                 ...        0 min,  0.000 sec (  0.105%)
 rational function              ...        0 min,  0.007 sec (  3.339%)

================
 final structure:
================
26
 xtb: 6.6.0 (conda-forge)
C           -4.10220208624113        0.34393964222509        0.00529654053383
C           -3.70804007025456        1.60651953216998        0.42480713019945
C           -2.36420224349495        1.90112065712692        0.55976642488592
C           -1.39394896933035        0.94227826386049        0.27875886867760
C           -1.79211758168535       -0.32985840954830       -0.14395421196181
C           -3.14935971009944       -0.61631667916426       -0.27667501585867
C           -0.80748614201937       -1.38402454260731       -0.45530254806985
O           -1.14746736740972       -2.49423542762849       -0.82399036929226
C            0.61557584930981       -1.01955727174878       -0.29545971025544
C            1.01762675240722        0.26089144229463        0.13004768804615
C            0.03270678384220        1.31782136821532        0.44225360837321
O            0.34600215914766        2.43144290316683        0.81130331610805
C            2.38641094866549        0.53121691546100        0.25789364167776
C            3.32571922582650       -0.47980845199828       -0.04088672389297
C            2.91330492166293       -1.72948794855643       -0.45676349928718
C            1.56103596526971       -1.99415036756566       -0.58228520542167
O            4.64054772349464       -0.13365208937459        0.10984582532051
O            2.82933401659692        1.72859005471544        0.65776293406201
H           -5.15140318742228        0.11133920722715       -0.10089589987193
H           -4.45002280593518        2.35936975057072        0.64601764530999
H           -2.03490835048300        2.87701417275954        0.88473139726422
H           -3.43099352048037       -1.60598910506526       -0.60468826289059
H            3.64575186211128       -2.49253604686710       -0.68155360353706
H            1.21545536971515       -2.96372698193369       -0.90569871379103
H            5.20461998567499       -0.88174479023496       -0.11510362639840
H            3.79806047113118        1.71354420250000        0.68157237007017

 Bond Distances (Angstroems)
 ---------------------------
C1-C2=1.3876         C1-C6=1.3818         C1-H19=1.0799        C2-C1=1.3876         C2-C3=1.3824         C2-H20=1.0799        
C3-C2=1.3824         C3-C4=1.3927         C3-H21=1.0800        C4-C3=1.3927         C4-C5=1.3984         C4-C11=1.4843        
C5-C4=1.3984         C5-C6=1.3935         C5-C7=1.4757         C6-C1=1.3818         C6-C5=1.3935         C6-H22=1.0800        
C7-C5=1.4757         C7-O8=1.2182         C7-C9=1.4777         O8-C7=1.2182         C9-C7=1.4777         C9-C10=1.4079        
C9-C16=1.3878        C10-C9=1.4079        C10-C11=1.4781       C10-C13=1.4011       C11-C4=1.4843        C11-C10=1.4781       
C11-O12=1.2143       O12-C11=1.2143       C13-C10=1.4011       C13-C14=1.4120       C13-O18=1.3378       C14-C13=1.4120       
C14-C15=1.3801       C14-O17=1.3680       C15-C14=1.3801       C15-C16=1.3836       C15-H23=1.0813       C16-C9=1.3878        
C16-C15=1.3836       C16-H24=1.0789       O17-C14=1.3680       O17-H25=0.9635       O18-C13=1.3378       O18-H26=0.9691       
H19-C1=1.0799        H20-C2=1.0799        H21-C3=1.0800        H22-C6=1.0800        H23-C15=1.0813       H24-C16=1.0789       
H25-O17=0.9635       H26-O18=0.9691       
 C  H  Rav=1.0800 sigma=0.0007  Rmin=1.0789  Rmax=1.0813     6
 C  C  Rav=1.4140 sigma=0.0385  Rmin=1.3801  Rmax=1.4843    16
 O  H  Rav=0.9663 sigma=0.0028  Rmin=0.9635  Rmax=0.9691     2
 O  C  Rav=1.2846 sigma=0.0692  Rmin=1.2143  Rmax=1.3680     4

 selected bond angles (degree)
 --------------------
C6-C1-C2=119.88                H19-C1-C2=120.11               H19-C1-C6=120.01               C3-C2-C1=119.97                
H20-C2-C1=120.07               H20-C2-C3=119.96               C4-C3-C2=120.72                H21-C3-C2=121.22               
H21-C3-C4=118.06               C5-C4-C3=119.27                C11-C4-C3=118.24               C11-C4-C5=122.49               
C6-C5-C4=119.55                C7-C5-C4=121.58                C7-C5-C6=118.88                C5-C6-C1=120.62                
H22-C6-C1=121.26               H22-C6-C5=118.12               O8-C7-C5=121.91                C9-C7-C5=116.33                
C9-C7-O8=121.75                C10-C9-C7=122.14               C16-C9-C7=117.42               C16-C9-C10=120.44              
C11-C10-C9=121.59              C13-C10-C9=118.82              C13-C10-C11=119.59             

 selected dihedral angles (degree)
 ---------------------------------
C3-C2-C1-C6=  0.00            C3-C2-C1-H19=180.00           H20-C2-C1-C6=180.00           H20-C2-C1-H19=  0.00          
C4-C3-C2-C1=  0.00            C4-C3-C2-H20=180.00           H21-C3-C2-C1=180.00           H21-C3-C2-H20=  0.00          
C5-C4-C3-C2=  0.00            C5-C4-C3-H21=180.00           C11-C4-C3-C2=180.00           C11-C4-C3-H21=  0.00          
C6-C5-C4-C3=  0.00            C6-C5-C4-C11=180.00           C7-C5-C4-C3=180.00            C7-C5-C4-C11=  0.00           
C5-C6-C1-C2=  0.00            C5-C6-C1-H19=180.00           H22-C6-C1-C2=180.00           H22-C6-C1-H19=  0.00          
C1-C6-C5-C4=  0.00            C1-C6-C5-C7=180.00            H22-C6-C5-C4=180.00           H22-C6-C5-C7=  0.00           
O8-C7-C5-C4=180.00            O8-C7-C5-C6=  0.00            C9-C7-C5-C4=  0.00            C9-C7-C5-C6=180.00            
C10-C9-C7-C5=  0.00           C10-C9-C7-O8=180.00           C16-C9-C7-C5=180.00           C16-C9-C7-O8=  0.00           
C11-C10-C9-C7=  0.00          C11-C10-C9-C16=180.00         C13-C10-C9-C7=180.00          C13-C10-C9-C16=  0.00         
           -------------------------------------------------
          |                Final Singlepoint                |
           -------------------------------------------------

          ...................................................
          :                      SETUP                      :
          :.................................................:
          :  # basis functions                  80          :
          :  # atomic orbitals                  80          :
          :  # shells                           44          :
          :  # electrons                        88          :
          :  max. iterations                   250          :
          :  Hamiltonian                  GFN2-xTB          :
          :  restarted?                      false          :
          :  GBSA solvation                  false          :
          :  PC potential                    false          :
          :  electronic temp.          300.0000000     K    :
          :  accuracy                    1.0000000          :
          :  -> integral cutoff          0.2500000E+02      :
          :  -> integral neglect         0.1000000E-07      :
          :  -> SCF convergence          0.1000000E-05 Eh   :
          :  -> wf. convergence          0.1000000E-03 e    :
          :  Broyden damping             0.4000000          :
          ...................................................

 iter      E             dE          RMSdq      gap      omega  full diag
   1    -51.0159195 -0.510159E+02  0.376E-05    1.82       0.0  T
   2    -51.0159195 -0.581224E-11  0.244E-05    1.82     803.8  T
   3    -51.0159195 -0.610356E-11  0.157E-05    1.82    1246.0  T

   *** convergence criteria satisfied after 3 iterations ***

         #    Occupation            Energy/Eh            Energy/eV
      -------------------------------------------------------------
         1        2.0000           -0.7449867             -20.2721
       ...           ...                  ...                  ...
        38        2.0000           -0.4361557             -11.8684
        39        2.0000           -0.4260708             -11.5940
        40        2.0000           -0.4214017             -11.4669
        41        2.0000           -0.4209155             -11.4537
        42        2.0000           -0.4020921             -10.9415
        43        2.0000           -0.3975607             -10.8182
        44        2.0000           -0.3844849             -10.4624 (HOMO)
        45                         -0.3174662              -8.6387 (LUMO)
        46                         -0.2715392              -7.3890
        47                         -0.2444624              -6.6522
        48                         -0.2374937              -6.4625
        49                         -0.1862687              -5.0686
       ...                                ...                  ...
        80                          0.7369526              20.0535
      -------------------------------------------------------------
                  HL-Gap            0.0670187 Eh            1.8237 eV
             Fermi-level           -0.3509755 Eh           -9.5505 eV

 SCC (total)                   0 d,  0 h,  0 min,  0.017 sec
 SCC setup                      ...        0 min,  0.000 sec (  1.922%)
 Dispersion                     ...        0 min,  0.000 sec (  2.382%)
 classical contributions        ...        0 min,  0.000 sec (  0.627%)
 integral evaluation            ...        0 min,  0.002 sec (  9.185%)
 iterations                     ...        0 min,  0.009 sec ( 51.186%)
 molecular gradient             ...        0 min,  0.006 sec ( 33.569%)
 printout                       ...        0 min,  0.000 sec (  0.995%)

         :::::::::::::::::::::::::::::::::::::::::::::::::::::
         ::                     SUMMARY                     ::
         :::::::::::::::::::::::::::::::::::::::::::::::::::::
         :: total energy             -50.309762757106 Eh    ::
         :: gradient norm              0.000194165778 Eh/a0 ::
         :: HOMO-LUMO gap              1.823671385306 eV    ::
         ::.................................................::
         :: SCC energy               -51.015919474430 Eh    ::
         :: -> isotropic ES            0.085920234798 Eh    ::
         :: -> anisotropic ES          0.003054462098 Eh    ::
         :: -> anisotropic XC          0.009846208618 Eh    ::
         :: -> dispersion             -0.029944789038 Eh    ::
         :: repulsion energy           0.706204969564 Eh    ::
         :: add. restraining           0.000000000000 Eh    ::
         :: total charge              -0.000000000000 e     ::
         :::::::::::::::::::::::::::::::::::::::::::::::::::::

           -------------------------------------------------
          |                Property Printout                |
           -------------------------------------------------

    * Orbital Energies and Occupations

         #    Occupation            Energy/Eh            Energy/eV
      -------------------------------------------------------------
         1        2.0000           -0.7449867             -20.2721
       ...           ...                  ...                  ...
        32        2.0000           -0.4891752             -13.3111
        33        2.0000           -0.4888962             -13.3035
        34        2.0000           -0.4760262             -12.9533
        35        2.0000           -0.4727659             -12.8646
        36        2.0000           -0.4606342             -12.5345
        37        2.0000           -0.4556303             -12.3983
        38        2.0000           -0.4361557             -11.8684
        39        2.0000           -0.4260708             -11.5940
        40        2.0000           -0.4214017             -11.4669
        41        2.0000           -0.4209155             -11.4537
        42        2.0000           -0.4020921             -10.9415
        43        2.0000           -0.3975607             -10.8182
        44        2.0000           -0.3844849             -10.4624 (HOMO)
        45                         -0.3174662              -8.6387 (LUMO)
        46                         -0.2715392              -7.3890
        47                         -0.2444624              -6.6522
        48                         -0.2374937              -6.4625
        49                         -0.1862687              -5.0686
        50                         -0.1819323              -4.9506
        51                         -0.1127761              -3.0688
        52                         -0.0621171              -1.6903
        53                          0.0152076               0.4138
        54                          0.0608622               1.6561
        55                          0.0774931               2.1087
       ...                                ...                  ...
        80                          0.7369526              20.0535
      -------------------------------------------------------------
                  HL-Gap            0.0670187 Eh            1.8237 eV
             Fermi-level           -0.3509755 Eh           -9.5505 eV

     #   Z          covCN         q      C6AA      α(0)
     1   6 C        2.918    -0.022    28.546     8.761
     2   6 C        2.918    -0.021    28.523     8.758
     3   6 C        2.924    -0.017    28.432     8.744
     4   6 C        2.975    -0.013    28.324     8.730
     5   6 C        2.975    -0.013    28.324     8.730
     6   6 C        2.924    -0.016    28.420     8.742
     7   6 C        2.832     0.225    23.268     7.905
     8   8 O        0.858    -0.371    21.116     6.161
     9   6 C        2.973    -0.024    28.608     8.773
    10   6 C        2.968    -0.040    28.985     8.831
    11   6 C        2.828     0.229    23.198     7.892
    12   8 O        0.858    -0.347    20.646     6.092
    13   6 C        2.845     0.148    24.783     8.159
    14   6 C        2.845     0.113    25.501     8.276
    15   6 C        2.912    -0.065    29.607     8.922
    16   6 C        2.926    -0.029    28.737     8.791
    17   8 O        1.659    -0.395    20.742     6.148
    18   8 O        1.660    -0.333    19.598     5.976
    19   1 H        0.926     0.046     2.370     2.407
    20   1 H        0.926     0.046     2.364     2.404
    21   1 H        0.926     0.069     2.099     2.265
    22   1 H        0.926     0.067     2.123     2.278
    23   1 H        0.925     0.046     2.365     2.405
    24   1 H        0.926     0.076     2.020     2.222
    25   1 H        0.805     0.310     0.691     1.306
    26   1 H        0.805     0.329     0.640     1.257

 Mol. C6AA /au·bohr⁶  :      10332.480843
 Mol. C8AA /au·bohr⁸  :     260829.177592
 Mol. α(0) /au        :        160.937935


Wiberg/Mayer (AO) data.
largest (>0.10) Wiberg bond orders for each atom

 ---------------------------------------------------------------------------
     #   Z sym  total        # sym  WBO       # sym  WBO       # sym  WBO
 ---------------------------------------------------------------------------
     1   6 C    3.989 --     6 C    1.448     2 C    1.424    19 H    0.970
     2   6 C    3.988 --     3 C    1.445     1 C    1.424    20 H    0.970
     3   6 C    3.985 --     2 C    1.445     4 C    1.396    21 H    0.964
     4   6 C    3.988 --     3 C    1.396     5 C    1.339    11 C    1.019
     5   6 C    3.989 --     6 C    1.389     4 C    1.339     7 C    1.032
     6   6 C    3.985 --     1 C    1.448     5 C    1.389    22 H    0.964
     7   6 C    3.935 --     8 O    1.763     9 C    1.036     5 C    1.032
     8   8 O    2.034 --     7 C    1.763
     9   6 C    3.987 --    16 C    1.410    10 C    1.305     7 C    1.036
    10   6 C    3.983 --    13 C    1.340     9 C    1.305    11 C    1.042
    11   6 C    3.941 --    12 O    1.782    10 C    1.042     4 C    1.019
    12   8 O    2.063 --    11 C    1.782
    13   6 C    3.949 --    10 C    1.340    14 C    1.259    18 O    1.143
    14   6 C    3.935 --    15 C    1.413    13 C    1.259    17 O    1.063
    15   6 C    3.986 --    14 C    1.413    16 C    1.413    23 H    0.964
    16   6 C    3.985 --    15 C    1.413     9 C    1.410    24 H    0.963
    17   8 O    2.111 --    14 C    1.063    25 H    0.882
    18   8 O    2.208 --    13 C    1.143    26 H    0.864
    19   1 H    0.997 --     1 C    0.970
    20   1 H    0.997 --     2 C    0.970
    21   1 H    0.995 --     3 C    0.964
    22   1 H    0.995 --     6 C    0.964
    23   1 H    0.997 --    15 C    0.964
    24   1 H    0.994 --    16 C    0.963
    25   1 H    0.903 --    17 O    0.882
    26   1 H    0.891 --    18 O    0.864
 ---------------------------------------------------------------------------

Topologies differ in total number of bonds
Writing topology from bond orders to xtbtopo.mol

molecular dipole:
                 x           y           z       tot (Debye)
 q only:        0.769      -0.297      -0.073
   full:        1.102      -0.583      -0.156       3.194
molecular quadrupole (traceless):
                xx          xy          yy          xz          yz          zz
 q only:       24.981     -12.706     -16.639      -3.120      -3.462      -8.342
  q+dip:       32.717     -17.637     -19.372      -4.316      -2.835     -13.345
   full:       29.889     -17.311     -21.784      -4.476      -5.585      -8.105

           -------------------------------------------------
          |                Geometry Summary                 |
           -------------------------------------------------

      molecular mass/u    :      240.2114483
   center of mass at/Å    :        0.1658510       0.0658741       0.0418359
  moments of inertia/u·Å² :        0.5560845E+03   0.1594049E+04   0.2150133E+04
rotational constants/cm⁻¹ :        0.3031487E-01   0.1057536E-01   0.7840273E-02

 * 24 selected distances

     #   Z          #   Z                                           value/Å
     1   6 C        2   6 C                                       1.3876099
     2   6 C        3   6 C                                       1.3823546
     3   6 C        4   6 C                                       1.3927440
     4   6 C        5   6 C                                       1.3984122
     1   6 C        6   6 C                                       1.3818499
     5   6 C        6   6 C                                       1.3934776
     7   6 C        8   8 O                                       1.2182309
     9   6 C       10   6 C                                       1.4079243
    11   6 C       12   8 O                                       1.2142919
    10   6 C       13   6 C                                       1.4010678
    13   6 C       14   6 C                                       1.4119994 (max)
    14   6 C       15   6 C                                       1.3801225
     9   6 C       16   6 C                                       1.3878025
    15   6 C       16   6 C                                       1.3836306
    14   6 C       17   8 O                                       1.3679616
    13   6 C       18   8 O                                       1.3378262
     1   6 C       19   1 H                                       1.0799088
     2   6 C       20   1 H                                       1.0799334
     3   6 C       21   1 H                                       1.0800023
     6   6 C       22   1 H                                       1.0799824
    15   6 C       23   1 H                                       1.0813194
    16   6 C       24   1 H                                       1.0789352
    17   8 O       25   1 H                                       0.9635469 (min)
    18   8 O       26   1 H                                       0.9691359

 * 4 distinct bonds (by element types)

   Z      Z             #   av. dist./Å        max./Å        min./Å
   1 H    6 C           6     1.0800136     1.0813194     1.0789352
   6 C    6 C          12     1.3924163     1.4119994     1.3801225
   1 H    8 O           2     0.9663414     0.9691359     0.9635469
   6 C    8 O           4     1.2845776     1.3679616     1.2142919


optimized geometry written to: xtbopt.xyz


           -------------------------------------------------
          | TOTAL ENERGY              -50.309762757106 Eh   |
          | GRADIENT NORM               0.000194165778 Eh/α |
          | HOMO-LUMO GAP               1.823671385306 eV   |
           -------------------------------------------------
########################################################################
[WARNING] Runtime exception occurred
-2- restart_readRestart: Dimension missmatch in restart file.
-1- restart_readRestart: Number of electron missmatch in restart file.
########################################################################

------------------------------------------------------------------------
 * finished run on 2024/09/07 at 14:04:29.569     
------------------------------------------------------------------------
 total:
 * wall-time:     0 d,  0 h,  0 min, 17.973 sec
 *  cpu-time:     0 d,  0 h,  0 min,  1.815 sec
 * ratio c/w:     0.101 speedup
 SCF:
 * wall-time:     0 d,  0 h,  0 min,  0.063 sec
 *  cpu-time:     0 d,  0 h,  0 min,  0.248 sec
 * ratio c/w:     3.938 speedup
 ANC optimizer:
 * wall-time:     0 d,  0 h,  0 min,  0.218 sec
 *  cpu-time:     0 d,  0 h,  0 min,  0.968 sec
 * ratio c/w:     4.445 speedup

