      -----------------------------------------------------------      
     |                   =====================                   |     
     |                           x T B                           |     
     |                   =====================                   |     
     |                         S. Grimme                         |     
     |          Mulliken Center for Theoretical Chemistry        |     
     |                    University of Bonn                     |     
      -----------------------------------------------------------      

   * xtb version 6.6.0 (conda-forge) compiled by 'runner@Mac-1676020848589.local' on 2023-02-10

   xtb is free software: you can redistribute it and/or modify it under
   the terms of the GNU Lesser General Public License as published by
   the Free Software Foundation, either version 3 of the License, or
   (at your option) any later version.
   
   xtb is distributed in the hope that it will be useful,
   but WITHOUT ANY WARRANTY; without even the implied warranty of
   MERCHANTABILITY or FITNESS FOR A PARTICULAR PURPOSE.  See the
   GNU Lesser General Public License for more details.
   
   Cite this work as:
   * C. Bannwarth, E. Caldeweyher, S. Ehlert, A. Hansen, P. Pracht,
     J. Seibert, S. Spicher, S. Grimme, WIREs Comput. Mol. Sci., 2020, 11,
     e01493. DOI: 10.1002/wcms.1493
   
   for GFN2-xTB:
   * C. Bannwarth, S. Ehlert and S. Grimme., J. Chem. Theory Comput., 2019,
     15, 1652-1671. DOI: 10.1021/acs.jctc.8b01176
   for GFN1-xTB:
   * S. Grimme, C. Bannwarth, P. Shushkov, J. Chem. Theory Comput., 2017,
     13, 1989-2009. DOI: 10.1021/acs.jctc.7b00118
   for GFN0-xTB:
   * P. Pracht, E. Caldeweyher, S. Ehlert, S. Grimme, ChemRxiv, 2019, preprint.
     DOI: 10.26434/chemrxiv.8326202.v1
   for GFN-FF:
   * S. Spicher and S. Grimme, Angew. Chem. Int. Ed., 2020, 59, 15665-15673.
     DOI: 10.1002/anie.202004239
   
   for ALPB and GBSA implicit solvation:
   * S. Ehlert, M. Stahn, S. Spicher, S. Grimme, J. Chem. Theory Comput.,
     2021, 17, 4250-4261. DOI: 10.1021/acs.jctc.1c00471
   
   for DFT-D4:
   * E. Caldeweyher, C. Bannwarth and S. Grimme, J. Chem. Phys., 2017,
     147, 034112. DOI: 10.1063/1.4993215
   * E. Caldeweyher, S. Ehlert, A. Hansen, H. Neugebauer, S. Spicher,
     C. Bannwarth and S. Grimme, J. Chem. Phys., 2019, 150, 154122.
     DOI: 10.1063/1.5090222
   * E. Caldeweyher, J.-M. Mewes, S. Ehlert and S. Grimme, Phys. Chem. Chem. Phys.
     2020, 22, 8499-8512. DOI: 10.1039/D0CP00502A
   
   for sTDA-xTB:
   * S. Grimme and C. Bannwarth, J. Chem. Phys., 2016, 145, 054103.
     DOI: 10.1063/1.4959605
   
   in the mass-spec context:
   * V. Asgeirsson, C. Bauer and S. Grimme, Chem. Sci., 2017, 8, 4879.
     DOI: 10.1039/c7sc00601b
   * J. Koopman and S. Grimme, ACS Omega 2019, 4, 12, 15120-15133.
     DOI: 10.1021/acsomega.9b02011
   
   for metadynamics refer to:
   * S. Grimme, J. Chem. Theory Comput., 2019, 155, 2847-2862
     DOI: 10.1021/acs.jctc.9b00143
   
   for SPH calculations refer to:
   * S. Spicher and S. Grimme, J. Chem. Theory Comput., 2021, 17, 1701-1714
     DOI: 10.1021/acs.jctc.0c01306
   
   with help from (in alphabetical order)
   P. Atkinson, C. Bannwarth, F. Bohle, G. Brandenburg, E. Caldeweyher
   M. Checinski, S. Dohm, S. Ehlert, S. Ehrlich, I. Gerasimov, C. Hölzer
   A. Katbashev, J. Koopman, C. Lavigne, S. Lehtola, F. März, M. Müller,
   F. Musil, H. Neugebauer, J. Pisarek, C. Plett, P. Pracht, F. Pultar,
   J. Seibert, P. Shushkov, S. Spicher, M. Stahn, M. Steiner, T. Strunk,
   J. Stückrath, T. Rose, and J. Unsleber
   
 * started run on 2024/09/16 at 17:15:30.110     

           -------------------------------------------------
          |                Calculation Setup                |
           -------------------------------------------------

          program call               : xtb vanillin.xyz --opt --gfn2
          coordinate file            : vanillin.xyz
          omp threads                :                     8

   ID    Z sym.   atoms
    1    6 C      1, 3-9
    2    8 O      2, 10, 11
    3    1 H      12-19

           -------------------------------------------------
          |                 G F N 2 - x T B                 |
           -------------------------------------------------

        Reference                      10.1021/acs.jctc.8b01176
      * Hamiltonian:
        H0-scaling (s, p, d)           1.850000    2.230000    2.230000
        zeta-weighting                 0.500000
      * Dispersion:
        s8                             2.700000
        a1                             0.520000
        a2                             5.000000
        s9                             5.000000
      * Repulsion:
        kExp                           1.500000    1.000000
        rExp                           1.000000
      * Coulomb:
        alpha                          2.000000
        third order                    shell-resolved
        anisotropic                    true
        a3                             3.000000
        a5                             4.000000
        cn-shift                       1.200000
        cn-exp                         4.000000
        max-rad                        5.000000


          ...................................................
          :                      SETUP                      :
          :.................................................:
          :  # basis functions                  52          :
          :  # atomic orbitals                  52          :
          :  # shells                           30          :
          :  # electrons                        58          :
          :  max. iterations                   250          :
          :  Hamiltonian                  GFN2-xTB          :
          :  restarted?                      false          :
          :  GBSA solvation                  false          :
          :  PC potential                    false          :
          :  electronic temp.          300.0000000     K    :
          :  accuracy                    1.0000000          :
          :  -> integral cutoff          0.2500000E+02      :
          :  -> integral neglect         0.1000000E-07      :
          :  -> SCF convergence          0.1000000E-05 Eh   :
          :  -> wf. convergence          0.1000000E-03 e    :
          :  Broyden damping             0.4000000          :
          ...................................................

 iter      E             dE          RMSdq      gap      omega  full diag
   1    -33.6858211 -0.336858E+02  0.538E+00    2.74       0.0  T
   2    -33.7289317 -0.431106E-01  0.286E+00    2.61       1.0  T
   3    -33.7237859  0.514582E-02  0.165E+00    2.68       1.0  T
   4    -33.7384481 -0.146622E-01  0.260E-01    2.61       1.0  T
   5    -33.7388973 -0.449185E-03  0.111E-01    2.62       1.0  T
   6    -33.7389671 -0.697793E-04  0.617E-02    2.64       1.0  T
   7    -33.7389892 -0.221210E-04  0.173E-02    2.63       1.3  T
   8    -33.7389903 -0.110469E-05  0.889E-03    2.63       2.6  T
   9    -33.7389912 -0.872382E-06  0.323E-03    2.63       7.1  T
  10    -33.7389912 -0.431905E-07  0.145E-03    2.63      15.9  T
  11    -33.7389912 -0.178312E-07  0.666E-04    2.63      34.5  T
  12    -33.7389912 -0.131112E-08  0.226E-04    2.63     101.4  T

   *** convergence criteria satisfied after 12 iterations ***

         #    Occupation            Energy/Eh            Energy/eV
      -------------------------------------------------------------
         1        2.0000           -0.7234797             -19.6869
       ...           ...                  ...                  ...
        23        2.0000           -0.4784054             -13.0181
        24        2.0000           -0.4611994             -12.5499
        25        2.0000           -0.4592743             -12.4975
        26        2.0000           -0.4453370             -12.1182
        27        2.0000           -0.4124620             -11.2237
        28        2.0000           -0.3986997             -10.8492
        29        2.0000           -0.3910464             -10.6409 (HOMO)
        30                         -0.2943749              -8.0103 (LUMO)
        31                         -0.2418305              -6.5805
        32                         -0.2039477              -5.5497
        33                         -0.1050639              -2.8589
        34                         -0.0555255              -1.5109
       ...                                ...                  ...
        52                          0.5984631              16.2850
      -------------------------------------------------------------
                  HL-Gap            0.0966716 Eh            2.6306 eV
             Fermi-level           -0.3427106 Eh           -9.3256 eV

 SCC (total)                   0 d,  0 h,  0 min,  0.044 sec
 SCC setup                      ...        0 min,  0.002 sec (  5.108%)
 Dispersion                     ...        0 min,  0.001 sec (  1.527%)
 classical contributions        ...        0 min,  0.000 sec (  0.805%)
 integral evaluation            ...        0 min,  0.002 sec (  4.879%)
 iterations                     ...        0 min,  0.035 sec ( 79.095%)
 molecular gradient             ...        0 min,  0.003 sec (  6.850%)
 printout                       ...        0 min,  0.001 sec (  1.703%)

         :::::::::::::::::::::::::::::::::::::::::::::::::::::
         ::                     SUMMARY                     ::
         :::::::::::::::::::::::::::::::::::::::::::::::::::::
         :: total energy             -33.362812964887 Eh    ::
         :: gradient norm              0.122690890257 Eh/a0 ::
         :: HOMO-LUMO gap              2.630567470229 eV    ::
         ::.................................................::
         :: SCC energy               -33.738991237003 Eh    ::
         :: -> isotropic ES            0.061241495019 Eh    ::
         :: -> anisotropic ES          0.001557497288 Eh    ::
         :: -> anisotropic XC          0.007172546389 Eh    ::
         :: -> dispersion             -0.015240556132 Eh    ::
         :: repulsion energy           0.376134456526 Eh    ::
         :: add. restraining           0.000000000000 Eh    ::
         :: total charge              -0.000000000000 e     ::
         :::::::::::::::::::::::::::::::::::::::::::::::::::::

      ----------------------------------------------------------- 
     |                   =====================                   |
     |                        A N C O P T                        |
     |                   =====================                   |
     |               Approximate Normal Coordinate               |
     |                Rational Function Optimizer                |
      ----------------------------------------------------------- 

          ...................................................
          :                      SETUP                      :
          :.................................................:
          :   optimization level            normal          :
          :   max. optcycles                   200          :
          :   ANC micro-cycles                  20          :
          :   degrees of freedom                51          :
          :.................................................:
          :   RF solver                   davidson          :
          :   write xtbopt.log                true          :
          :   linear?                        false          :
          :   energy convergence         0.5000000E-05 Eh   :
          :   grad. convergence          0.1000000E-02 Eh/α :
          :   maxmium RF displ.          1.0000000          :
          :   Hlow (freq-cutoff)         0.1000000E-01      :
          :   Hmax (freq-cutoff)         5.0000000          :
          :   S6 in model hess.         20.0000000          :
          ...................................................

generating ANC from model Hessian ...
Using Lindh-Hessian (1995)
 Shifting diagonal of input Hessian by    7.7166639766902446E-003
 Lowest  eigenvalues of input Hessian
    0.000000    0.000000    0.000000    0.000000    0.000000    0.000000
    0.010000    0.011384    0.011669    0.012971    0.018208    0.020412
    0.023397    0.025170    0.031261    0.032543    0.046883    0.052408
 Highest eigenvalues
    1.664364    1.695970    1.825872    1.924570    2.009453    2.049707


........................................................................
.............................. CYCLE    1 ..............................
........................................................................

 iter      E             dE          RMSdq      gap      omega  full diag
   1    -33.7389912 -0.337390E+02  0.102E-04    2.63       0.0  T
   2    -33.7389912 -0.268940E-10  0.627E-05    2.63     366.1  T
   3    -33.7389912 -0.521538E-11  0.426E-05    2.63     538.8  T
     SCC iter.                  ...        0 min,  0.002 sec
     gradient                   ...        0 min,  0.001 sec
 * total energy  :   -33.3628130 Eh     change       -0.3011067E-09 Eh
   gradient norm :     0.1226898 Eh/α   predicted     0.0000000E+00 (-100.00%)
   displ. norm   :     0.3446968 α      lambda       -0.2084376E-01
   maximum displ.:     0.1665265 α      in ANC's #9, #15, #25, ...

........................................................................
.............................. CYCLE    2 ..............................
........................................................................

 iter      E             dE          RMSdq      gap      omega  full diag
   1    -33.7835385 -0.337835E+02  0.326E-01    2.81       0.0  T
   2    -33.7839023 -0.363734E-03  0.192E-01    2.80       1.0  T
   3    -33.7838879  0.143448E-04  0.982E-02    2.78       1.0  T
   4    -33.7839344 -0.464220E-04  0.376E-02    2.80       1.0  T
   5    -33.7839574 -0.230191E-04  0.767E-03    2.79       3.0  T
   6    -33.7839577 -0.305350E-06  0.375E-03    2.79       6.1  T
   7    -33.7839578 -0.123284E-06  0.128E-03    2.79      17.9  T
   8    -33.7839578 -0.768040E-09  0.526E-04    2.79      43.7  T
   9    -33.7839578 -0.933319E-09  0.172E-04    2.79     133.1  T
     SCC iter.                  ...        0 min,  0.004 sec
     gradient                   ...        0 min,  0.001 sec
 * total energy  :   -33.3775907 Eh     change       -0.1477776E-01 Eh
   gradient norm :     0.0480525 Eh/α   predicted    -0.1167123E-01 ( -21.02%)
   displ. norm   :     0.3158100 α      lambda       -0.6892400E-02
   maximum displ.:     0.2178249 α      in ANC's #9, #15, #25, ...

........................................................................
.............................. CYCLE    3 ..............................
........................................................................

 iter      E             dE          RMSdq      gap      omega  full diag
   1    -33.8054003 -0.338054E+02  0.241E-01    2.87       0.0  T
   2    -33.8055898 -0.189442E-03  0.145E-01    2.88       1.0  T
   3    -33.8055852  0.454797E-05  0.782E-02    2.86       1.0  T
   4    -33.8056260 -0.407420E-04  0.269E-02    2.88       1.0  T
   5    -33.8056357 -0.977270E-05  0.572E-03    2.87       4.0  T
   6    -33.8056359 -0.133771E-06  0.266E-03    2.88       8.6  T
   7    -33.8056359 -0.559142E-07  0.115E-03    2.87      19.9  T
   8    -33.8056359 -0.208588E-08  0.454E-04    2.87      50.5  T
   9    -33.8056359 -0.421309E-09  0.160E-04    2.87     143.2  T
     SCC iter.                  ...        0 min,  0.004 sec
     gradient                   ...        0 min,  0.001 sec
 * total energy  :   -33.3815063 Eh     change       -0.3915550E-02 Eh
   gradient norm :     0.0124530 Eh/α   predicted    -0.3790737E-02 (  -3.19%)
   displ. norm   :     0.1472352 α      lambda       -0.7343345E-03
   maximum displ.:     0.1224865 α      in ANC's #9, #8, #12, ...

........................................................................
.............................. CYCLE    4 ..............................
........................................................................

 iter      E             dE          RMSdq      gap      omega  full diag
   1    -33.8052229 -0.338052E+02  0.697E-02    2.86       0.0  T
   2    -33.8052274 -0.443412E-05  0.421E-02    2.87       1.0  T
   3    -33.8052239  0.346578E-05  0.198E-02    2.87       1.2  T
   4    -33.8052289 -0.502039E-05  0.354E-03    2.87       6.5  T
   5    -33.8052290 -0.102956E-06  0.186E-03    2.87      12.3  T
   6    -33.8052290 -0.836360E-08  0.111E-03    2.87      20.7  T
   7    -33.8052291 -0.681827E-08  0.293E-04    2.87      78.4  T
   8    -33.8052291 -0.785874E-09  0.122E-04    2.87     188.5  T
     SCC iter.                  ...        0 min,  0.004 sec
     gradient                   ...        0 min,  0.001 sec
 * total energy  :   -33.3819985 Eh     change       -0.4921828E-03 Eh
   gradient norm :     0.0101865 Eh/α   predicted    -0.3751417E-03 ( -23.78%)
   displ. norm   :     0.0949796 α      lambda       -0.2581148E-03
   maximum displ.:     0.0734562 α      in ANC's #9, #8, #12, ...

........................................................................
.............................. CYCLE    5 ..............................
........................................................................

 iter      E             dE          RMSdq      gap      omega  full diag
   1    -33.8044161 -0.338044E+02  0.373E-02    2.87       0.0  T
   2    -33.8044173 -0.122520E-05  0.223E-02    2.87       1.0  T
   3    -33.8044160  0.134271E-05  0.115E-02    2.87       2.0  T
   4    -33.8044180 -0.203568E-05  0.187E-03    2.87      12.3  T
   5    -33.8044180 -0.191007E-07  0.102E-03    2.87      22.5  T
   6    -33.8044181 -0.735024E-08  0.521E-04    2.87      44.0  T
   7    -33.8044181 -0.863189E-09  0.189E-04    2.87     121.1  T
     SCC iter.                  ...        0 min,  0.005 sec
     gradient                   ...        0 min,  0.001 sec
 * total energy  :   -33.3821542 Eh     change       -0.1557524E-03 Eh
   gradient norm :     0.0052666 Eh/α   predicted    -0.1302279E-03 ( -16.39%)
   displ. norm   :     0.0289867 α      lambda       -0.4439556E-04
   maximum displ.:     0.0171116 α      in ANC's #8, #4, #9, ...

........................................................................
.............................. CYCLE    6 ..............................
........................................................................

 iter      E             dE          RMSdq      gap      omega  full diag
   1    -33.8044565 -0.338045E+02  0.156E-02    2.87       0.0  T
   2    -33.8044570 -0.447096E-06  0.946E-03    2.87       2.4  T
   3    -33.8044569  0.955329E-07  0.544E-03    2.87       4.2  T
   4    -33.8044572 -0.331179E-06  0.109E-03    2.87      21.1  T
   5    -33.8044572 -0.730206E-08  0.398E-04    2.87      57.6  T
   6    -33.8044572 -0.143131E-08  0.176E-04    2.87     130.3  T
     SCC iter.                  ...        0 min,  0.004 sec
     gradient                   ...        0 min,  0.001 sec
 * total energy  :   -33.3821816 Eh     change       -0.2739715E-04 Eh
   gradient norm :     0.0017561 Eh/α   predicted    -0.2222403E-04 ( -18.88%)
   displ. norm   :     0.0378326 α      lambda       -0.1817157E-04
   maximum displ.:     0.0243410 α      in ANC's #4, #8, #24, ...

........................................................................
.............................. CYCLE    7 ..............................
........................................................................

 iter      E             dE          RMSdq      gap      omega  full diag
   1    -33.8046536 -0.338047E+02  0.303E-02    2.87       0.0  T
   2    -33.8046540 -0.382228E-06  0.184E-02    2.87       1.2  T
   3    -33.8046529  0.104015E-05  0.824E-03    2.87       2.8  T
   4    -33.8046542 -0.127866E-05  0.952E-04    2.87      24.1  T
   5    -33.8046542 -0.504807E-08  0.473E-04    2.87      48.5  T
   6    -33.8046542 -0.102344E-08  0.230E-04    2.87      99.8  T
     SCC iter.                  ...        0 min,  0.004 sec
     gradient                   ...        0 min,  0.001 sec
 * total energy  :   -33.3821759 Eh     change        0.5681610E-05 Eh
   gradient norm :     0.0027906 Eh/α   predicted    -0.9092572E-05 (-260.04%)
   displ. norm   :     0.0112063 α      lambda       -0.2116388E-04
   maximum displ.:     0.0062531 α      in ANC's #13, #17, #11, ...

........................................................................
.............................. CYCLE    8 ..............................
........................................................................

 iter      E             dE          RMSdq      gap      omega  full diag
   1    -33.8047115 -0.338047E+02  0.155E-02    2.87       0.0  T
   2    -33.8047115 -0.283954E-07  0.937E-03    2.87       2.4  T
   3    -33.8047114  0.572342E-07  0.185E-03    2.87      12.4  T
   4    -33.8047115 -0.692482E-07  0.351E-04    2.87      65.3  T
   5    -33.8047115 -0.639325E-09  0.182E-04    2.87     126.4  T
     SCC iter.                  ...        0 min,  0.003 sec
     gradient                   ...        0 min,  0.001 sec
 * total energy  :   -33.3821888 Eh     change       -0.1288961E-04 Eh
   gradient norm :     0.0011429 Eh/α   predicted    -0.1058448E-04 ( -17.88%)
   displ. norm   :     0.0167101 α      lambda        0.7344031E-05
   maximum displ.:     0.0092852 α      in ANC's #13, #17, #11, ...

........................................................................
.............................. CYCLE    9 ..............................
........................................................................

 iter      E             dE          RMSdq      gap      omega  full diag
   1    -33.8047417 -0.338047E+02  0.232E-02    2.87       0.0  T
   2    -33.8047418 -0.607781E-07  0.140E-02    2.87       1.6  T
   3    -33.8047417  0.111280E-06  0.261E-03    2.87       8.8  T
   4    -33.8047418 -0.136315E-06  0.526E-04    2.87      43.6  T
   5    -33.8047418 -0.140729E-08  0.271E-04    2.87      84.7  T
     SCC iter.                  ...        0 min,  0.002 sec
     gradient                   ...        0 min,  0.001 sec
 * total energy  :   -33.3821771 Eh     change        0.1167029E-04 Eh
   gradient norm :     0.0023197 Eh/α   predicted     0.3670866E-05 ( -68.55%)
   displ. norm   :     0.0116835 α      lambda       -0.1859516E-04
   maximum displ.:     0.0053447 α      in ANC's #13, #4, #8, ...

........................................................................
.............................. CYCLE   10 ..............................
........................................................................

 iter      E             dE          RMSdq      gap      omega  full diag
   1    -33.8046811 -0.338047E+02  0.141E-02    2.87       0.0  T
   2    -33.8046811 -0.213511E-07  0.850E-03    2.87       2.7  T
   3    -33.8046810  0.613359E-07  0.191E-03    2.87      12.0  T
   4    -33.8046811 -0.732575E-07  0.309E-04    2.87      74.4  T
   5    -33.8046811 -0.241492E-09  0.164E-04    2.87     140.0  T
     SCC iter.                  ...        0 min,  0.002 sec
     gradient                   ...        0 min,  0.001 sec
 * total energy  :   -33.3821892 Eh     change       -0.1201699E-04 Eh
   gradient norm :     0.0007843 Eh/α   predicted    -0.9312200E-05 ( -22.51%)
   displ. norm   :     0.0073321 α      lambda       -0.2799066E-05
   maximum displ.:     0.0038648 α      in ANC's #13, #9, #11, ...

........................................................................
.............................. CYCLE   11 ..............................
........................................................................

 iter      E             dE          RMSdq      gap      omega  full diag
   1    -33.8046242 -0.338046E+02  0.947E-03    2.87       0.0  T
   2    -33.8046242 -0.112849E-07  0.572E-03    2.87       4.0  T
   3    -33.8046242  0.250021E-07  0.114E-03    2.87      20.1  T
   4    -33.8046242 -0.296710E-07  0.222E-04    2.87     103.2  T
   5    -33.8046242 -0.357062E-09  0.107E-04    2.87     213.8  T
     SCC iter.                  ...        0 min,  0.003 sec
     gradient                   ...        0 min,  0.001 sec
 * total energy  :   -33.3821902 Eh     change       -0.1048484E-05 Eh
   gradient norm :     0.0004072 Eh/α   predicted    -0.1406327E-05 (  34.13%)
   displ. norm   :     0.0025472 α      lambda       -0.4768965E-06
   maximum displ.:     0.0012333 α      in ANC's #13, #9, #8, ...

   *** GEOMETRY OPTIMIZATION CONVERGED AFTER 11 ITERATIONS ***

------------------------------------------------------------------------
 total energy gain   :        -0.0193772 Eh      -12.1594 kcal/mol
 total RMSD          :         0.1944048 a0        0.1029 Å
 total power (kW/mol):        -4.6249960 (step) -674.8313 (real)
------------------------------------------------------------------------

 ANCopt (total)                0 d,  0 h,  0 min,  0.075 sec
 optimizer setup                ...        0 min,  0.001 sec (  0.841%)
 model hessian                  ...        0 min,  0.004 sec (  5.520%)
 ANC generation                 ...        0 min,  0.001 sec (  1.406%)
 coordinate transformation      ...        0 min,  0.000 sec (  0.088%)
 single point calculation       ...        0 min,  0.057 sec ( 75.926%)
 optimization log               ...        0 min,  0.001 sec (  1.430%)
 hessian update                 ...        0 min,  0.000 sec (  0.452%)
 rational function              ...        0 min,  0.010 sec ( 12.616%)

================
 final structure:
================
19
 xtb: 6.6.0 (conda-forge)
C           -2.46253207163860       -1.32381881596712       -0.63635128118359
O           -2.07196904611393        0.00945214304291       -0.40607471649479
C           -0.75126454769815        0.25006202183320       -0.11890122398690
C           -0.43996174010438        1.60971692567388        0.09891573116970
C            0.86343516424409        1.98173907654070        0.39791915756188
C            1.85683483849687        1.02654688691957        0.48315801398298
C            1.55703442169480       -0.31587591240670        0.26970231611035
C            0.24350816806559       -0.69769051044058       -0.03259773860157
C            2.59252084614243       -1.34254467526770        0.35559046733310
O            2.42178945022790       -2.52548653677856        0.18459521832867
O           -1.40694284314235        2.54707915432088        0.01689898928508
H           -2.28171500815469       -1.94806425472711        0.24333111026065
H           -1.93949005970149       -1.74745649067434       -1.49842682071727
H           -3.53099758092495       -1.28636274944497       -0.84196971671083
H            1.07133783882101        3.02714806006543        0.55923148251237
H            2.86925669885098        1.31987588256409        0.71593753158342
H            0.05336475852270       -1.74747200891053       -0.19080055782525
H            3.59746236804445       -0.94263912079417        0.59767046809135
H           -2.24157165563228        2.10589092445112       -0.19792843069933

 Bond Distances (Angstroems)
 ---------------------------
C1-O2=1.4083         C1-H12=1.0937        C1-H13=1.0937        C1-H14=1.0887        O2-C1=1.4083         O2-C3=1.3728         
C3-O2=1.3728         C3-C4=1.4117         C3-C8=1.3767         C4-C3=1.4117         C4-C5=1.3880         C4-O11=1.3492        
C5-C4=1.3880         C5-C6=1.3808         C5-H15=1.0780        C6-C5=1.3808         C6-C7=1.3920         C6-H16=1.0795        
C7-C6=1.3920         C7-C8=1.4009         C7-C9=1.4607         C8-C3=1.3767         C8-C7=1.4009         C8-H17=1.0785        
C9-C7=1.4607         C9-O10=1.2074        C9-H18=1.1083        O10-C9=1.2074        O11-C4=1.3492        O11-H19=0.9682       
H12-C1=1.0937        H13-C1=1.0937        H14-C1=1.0887        H15-C5=1.0780        H16-C6=1.0795        H17-C8=1.0785        
H18-C9=1.1083        H19-O11=0.9682       
 C  H  Rav=1.0886 sigma=0.0103  Rmin=1.0780  Rmax=1.1083     7
 C  C  Rav=1.4015 sigma=0.0265  Rmin=1.3767  Rmax=1.4607     7
 O  H  Rav=0.9682 sigma=0.0000  Rmin=0.9682  Rmax=0.9682     1
 O  C  Rav=1.3344 sigma=0.0763  Rmin=1.2074  Rmax=1.4083     4

 selected bond angles (degree)
 --------------------
H12-C1-O2=111.28               H13-C1-O2=111.28               H13-C1-H12=109.50              H14-C1-O2=105.69               
H14-C1-H12=109.50              H14-C1-H13=109.50              C3-O2-C1=117.84                C4-C3-O2=114.41                
C8-C3-O2=125.99                C8-C3-C4=119.61                C5-C4-C3=119.90                O11-C4-C3=120.11               
O11-C4-C5=119.99               C6-C5-C4=120.23                H15-C5-C4=118.25               H15-C5-C6=121.53               
C7-C6-C5=120.18                H16-C6-C5=120.01               H16-C6-C7=119.81               C8-C7-C6=119.86                
C9-C7-C6=121.07                C9-C7-C8=119.07                C7-C8-C3=120.23                H17-C8-C3=122.24               
H17-C8-C7=117.53               O10-C9-C7=125.46               H18-C9-C7=113.70               H18-C9-O10=120.84              

 selected dihedral angles (degree)
 ---------------------------------
C3-O2-C1-H12= 61.21           C3-O2-C1-H13=298.79           C3-O2-C1-H14=180.00           C4-C3-O2-C1=180.00            
C8-C3-O2-C1=  0.00            C5-C4-C3-O2=180.00            C5-C4-C3-C8=  0.00            O11-C4-C3-O2=  0.00           
O11-C4-C3-C8=180.00           C6-C5-C4-C3=  0.00            C6-C5-C4-O11=180.00           H15-C5-C4-C3=180.00           
H15-C5-C4-O11=  0.00          C7-C6-C5-C4=  0.00            C7-C6-C5-H15=179.99           H16-C6-C5-C4=180.00           
H16-C6-C5-H15=  0.00          C8-C7-C6-C5=  0.00            C8-C7-C6-H16=180.01           C9-C7-C6-C5=180.03            
C9-C7-C6-H16=  0.02           C7-C8-C3-O2=180.01            C7-C8-C3-C4=  0.00            H17-C8-C3-O2=  0.00           
H17-C8-C3-C4=179.99           C3-C8-C7-C6=  0.00            C3-C8-C7-C9=179.97            H17-C8-C7-C6=180.00           
H17-C8-C7-C9=  0.00           O10-C9-C7-C6=180.07           O10-C9-C7-C8=  0.09           H18-C9-C7-C6=359.90           
H18-C9-C7-C8=179.91           
           -------------------------------------------------
          |                Final Singlepoint                |
           -------------------------------------------------

          ...................................................
          :                      SETUP                      :
          :.................................................:
          :  # basis functions                  52          :
          :  # atomic orbitals                  52          :
          :  # shells                           30          :
          :  # electrons                        58          :
          :  max. iterations                   250          :
          :  Hamiltonian                  GFN2-xTB          :
          :  restarted?                      false          :
          :  GBSA solvation                  false          :
          :  PC potential                    false          :
          :  electronic temp.          300.0000000     K    :
          :  accuracy                    1.0000000          :
          :  -> integral cutoff          0.2500000E+02      :
          :  -> integral neglect         0.1000000E-07      :
          :  -> SCF convergence          0.1000000E-05 Eh   :
          :  -> wf. convergence          0.1000000E-03 e    :
          :  Broyden damping             0.4000000          :
          ...................................................

 iter      E             dE          RMSdq      gap      omega  full diag
   1    -33.8046242 -0.338046E+02  0.487E-05    2.87       0.0  T
   2    -33.8046242 -0.119726E-10  0.313E-05    2.87     733.7  T
   3    -33.8046242 -0.818545E-11  0.182E-05    2.87    1262.7  T

   *** convergence criteria satisfied after 3 iterations ***

         #    Occupation            Energy/Eh            Energy/eV
      -------------------------------------------------------------
         1        2.0000           -0.7391055             -20.1121
       ...           ...                  ...                  ...
        23        2.0000           -0.4835087             -13.1569
        24        2.0000           -0.4686543             -12.7527
        25        2.0000           -0.4638880             -12.6230
        26        2.0000           -0.4440706             -12.0838
        27        2.0000           -0.4149175             -11.2905
        28        2.0000           -0.3963947             -10.7864
        29        2.0000           -0.3911998             -10.6451 (HOMO)
        30                         -0.2856687              -7.7734 (LUMO)
        31                         -0.2347528              -6.3879
        32                         -0.1947716              -5.3000
        33                         -0.0945391              -2.5725
        34                         -0.0030157              -0.0821
       ...                                ...                  ...
        52                          0.6674209              18.1614
      -------------------------------------------------------------
                  HL-Gap            0.1055311 Eh            2.8716 eV
             Fermi-level           -0.3384343 Eh           -9.2093 eV

 SCC (total)                   0 d,  0 h,  0 min,  0.003 sec
 SCC setup                      ...        0 min,  0.000 sec (  1.680%)
 Dispersion                     ...        0 min,  0.000 sec (  1.376%)
 classical contributions        ...        0 min,  0.000 sec (  0.440%)
 integral evaluation            ...        0 min,  0.000 sec ( 13.121%)
 iterations                     ...        0 min,  0.001 sec ( 44.364%)
 molecular gradient             ...        0 min,  0.001 sec ( 37.147%)
 printout                       ...        0 min,  0.000 sec (  1.648%)

         :::::::::::::::::::::::::::::::::::::::::::::::::::::
         ::                     SUMMARY                     ::
         :::::::::::::::::::::::::::::::::::::::::::::::::::::
         :: total energy             -33.382190212340 Eh    ::
         :: gradient norm              0.000407099973 Eh/a0 ::
         :: HOMO-LUMO gap              2.871648333793 eV    ::
         ::.................................................::
         :: SCC energy               -33.804624185404 Eh    ::
         :: -> isotropic ES            0.055139326472 Eh    ::
         :: -> anisotropic ES          0.001626691598 Eh    ::
         :: -> anisotropic XC          0.005797568540 Eh    ::
         :: -> dispersion             -0.015617546039 Eh    ::
         :: repulsion energy           0.422384795700 Eh    ::
         :: add. restraining           0.000000000000 Eh    ::
         :: total charge              -0.000000000000 e     ::
         :::::::::::::::::::::::::::::::::::::::::::::::::::::

           -------------------------------------------------
          |                Property Printout                |
           -------------------------------------------------

    * Orbital Energies and Occupations

         #    Occupation            Energy/Eh            Energy/eV
      -------------------------------------------------------------
         1        2.0000           -0.7391055             -20.1121
       ...           ...                  ...                  ...
        17        2.0000           -0.5292656             -14.4021
        18        2.0000           -0.5288677             -14.3912
        19        2.0000           -0.5227768             -14.2255
        20        2.0000           -0.5044558             -13.7269
        21        2.0000           -0.4895081             -13.3202
        22        2.0000           -0.4853318             -13.2066
        23        2.0000           -0.4835087             -13.1569
        24        2.0000           -0.4686543             -12.7527
        25        2.0000           -0.4638880             -12.6230
        26        2.0000           -0.4440706             -12.0838
        27        2.0000           -0.4149175             -11.2905
        28        2.0000           -0.3963947             -10.7864
        29        2.0000           -0.3911998             -10.6451 (HOMO)
        30                         -0.2856687              -7.7734 (LUMO)
        31                         -0.2347528              -6.3879
        32                         -0.1947716              -5.3000
        33                         -0.0945391              -2.5725
        34                         -0.0030157              -0.0821
        35                          0.0655154               1.7828
        36                          0.0918949               2.5006
        37                          0.1105844               3.0092
        38                          0.1340538               3.6478
        39                          0.1366906               3.7195
        40                          0.1510427               4.1101
       ...                                ...                  ...
        52                          0.6674209              18.1614
      -------------------------------------------------------------
                  HL-Gap            0.1055311 Eh            2.8716 eV
             Fermi-level           -0.3384343 Eh           -9.2093 eV

     #   Z          covCN         q      C6AA      α(0)
     1   6 C        3.644     0.035    20.315     6.479
     2   8 O        1.705    -0.284    18.714     5.841
     3   6 C        2.862     0.109    25.588     8.291
     4   6 C        2.847     0.138    24.987     8.192
     5   6 C        2.915    -0.055    29.378     8.888
     6   6 C        2.921    -0.036    28.888     8.814
     7   6 C        2.971    -0.025    28.614     8.774
     8   6 C        2.921    -0.056    29.388     8.890
     9   6 C        2.768     0.206    23.620     7.959
    10   8 O        0.856    -0.346    20.637     6.091
    11   8 O        1.660    -0.368    20.233     6.072
    12   1 H        0.924     0.047     2.353     2.399
    13   1 H        0.924     0.047     2.353     2.399
    14   1 H        0.925     0.063     2.160     2.299
    15   1 H        0.926     0.066     2.135     2.285
    16   1 H        0.926     0.051     2.313     2.378
    17   1 H        0.926     0.071     2.076     2.253
    18   1 H        0.922     0.011     2.875     2.652
    19   1 H        0.805     0.325     0.651     1.267

 Mol. C6AA /au·bohr⁶  :       4308.613768
 Mol. C8AA /au·bohr⁸  :     102097.936581
 Mol. α(0) /au        :        102.223421


Wiberg/Mayer (AO) data.
largest (>0.10) Wiberg bond orders for each atom

 ---------------------------------------------------------------------------
     #   Z sym  total        # sym  WBO       # sym  WBO       # sym  WBO
 ---------------------------------------------------------------------------
     1   6 C    3.940 --    14 H    0.979     2 O    0.979    13 H    0.977
                            12 H    0.977
     2   8 O    2.213 --     3 C    1.042     1 C    0.979
     3   6 C    3.935 --     8 C    1.440     4 C    1.263     2 O    1.042
     4   6 C    3.946 --     5 C    1.378     3 C    1.263    11 O    1.109
     5   6 C    3.986 --     6 C    1.453     4 C    1.378    15 H    0.965
     6   6 C    3.991 --     5 C    1.453     7 C    1.374    16 H    0.967
     7   6 C    3.988 --     6 C    1.374     8 C    1.333     9 C    1.079
     8   6 C    3.988 --     3 C    1.440     7 C    1.333    17 H    0.960
     9   6 C    3.926 --    10 O    1.848     7 C    1.079    18 H    0.931
    10   8 O    2.063 --     9 C    1.848
    11   8 O    2.148 --     4 C    1.109    19 H    0.868
    12   1 H    0.998 --     1 C    0.977
    13   1 H    0.998 --     1 C    0.977
    14   1 H    0.996 --     1 C    0.979
    15   1 H    0.995 --     5 C    0.965
    16   1 H    0.997 --     6 C    0.967
    17   1 H    0.995 --     8 C    0.960
    18   1 H    0.999 --     9 C    0.931
    19   1 H    0.894 --    11 O    0.868
 ---------------------------------------------------------------------------

Topologies differ in total number of bonds
Writing topology from bond orders to xtbtopo.mol

molecular dipole:
                 x           y           z       tot (Debye)
 q only:       -0.921       0.604      -0.111
   full:       -0.977       0.503      -0.133       2.814
molecular quadrupole (traceless):
                xx          xy          yy          xz          yz          zz
 q only:        5.432      11.059      -6.685       2.215       1.323       1.253
  q+dip:        8.815      12.896      -9.647       3.214       1.414       0.832
   full:        7.685      13.085     -10.831       2.525       1.027       3.146

           -------------------------------------------------
          |                Geometry Summary                 |
           -------------------------------------------------

      molecular mass/u    :      152.1476280
   center of mass at/Å    :        0.1460245       0.0889814       0.0389557
  moments of inertia/u·Å² :        0.3064738E+03   0.5717299E+03   0.8749873E+03
rotational constants/cm⁻¹ :        0.5500513E-01   0.2948531E-01   0.1926614E-01

 * 17 selected distances

     #   Z          #   Z                                           value/Å
     1   6 C        2   8 O                                       1.4082537
     2   8 O        3   6 C                                       1.3728155
     3   6 C        4   6 C                                       1.4117420 (max)
     4   6 C        5   6 C                                       1.3880372
     5   6 C        6   6 C                                       1.3807610
     6   6 C        7   6 C                                       1.3919565
     3   6 C        8   6 C                                       1.3766831
     7   6 C        8   6 C                                       1.4008995
     9   6 C       10   8 O                                       1.2073692
     4   6 C       11   8 O                                       1.3492322
     1   6 C       12   1 H                                       1.0937177
     1   6 C       13   1 H                                       1.0937167
     1   6 C       14   1 H                                       1.0887151
     5   6 C       15   1 H                                       1.0780192
     6   6 C       16   1 H                                       1.0794565
     8   6 C       17   1 H                                       1.0785287
    11   8 O       19   1 H                                       0.9681959 (min)

 * 4 distinct bonds (by element types)

   Z      Z             #   av. dist./Å        max./Å        min./Å
   1 H    6 C           6     1.0853590     1.0937177     1.0780192
   6 C    6 C           6     1.3916799     1.4117420     1.3766831
   1 H    8 O           1     0.9681959     0.9681959     0.9681959
   6 C    8 O           4     1.3344177     1.4082537     1.2073692


optimized geometry written to: xtbopt.xyz


           -------------------------------------------------
          | TOTAL ENERGY              -33.382190212340 Eh   |
          | GRADIENT NORM               0.000407099973 Eh/α |
          | HOMO-LUMO GAP               2.871648333793 eV   |
           -------------------------------------------------
########################################################################
[WARNING] Runtime exception occurred
-2- restart_readRestart: Dimension missmatch in restart file.
-1- restart_readRestart: Number of electron missmatch in restart file.
########################################################################

------------------------------------------------------------------------
 * finished run on 2024/09/16 at 17:15:30.496     
------------------------------------------------------------------------
 total:
 * wall-time:     0 d,  0 h,  0 min,  0.386 sec
 *  cpu-time:     0 d,  0 h,  0 min,  2.337 sec
 * ratio c/w:     6.059 speedup
 SCF:
 * wall-time:     0 d,  0 h,  0 min,  0.045 sec
 *  cpu-time:     0 d,  0 h,  0 min,  0.217 sec
 * ratio c/w:     4.878 speedup
 ANC optimizer:
 * wall-time:     0 d,  0 h,  0 min,  0.079 sec
 *  cpu-time:     0 d,  0 h,  0 min,  0.558 sec
 * ratio c/w:     7.023 speedup

