      -----------------------------------------------------------      
     |                   =====================                   |     
     |                           x T B                           |     
     |                   =====================                   |     
     |                         S. Grimme                         |     
     |          Mulliken Center for Theoretical Chemistry        |     
     |                    University of Bonn                     |     
      -----------------------------------------------------------      

   * xtb version 6.6.0 (conda-forge) compiled by 'runner@Mac-1676020848589.local' on 2023-02-10

   xtb is free software: you can redistribute it and/or modify it under
   the terms of the GNU Lesser General Public License as published by
   the Free Software Foundation, either version 3 of the License, or
   (at your option) any later version.
   
   xtb is distributed in the hope that it will be useful,
   but WITHOUT ANY WARRANTY; without even the implied warranty of
   MERCHANTABILITY or FITNESS FOR A PARTICULAR PURPOSE.  See the
   GNU Lesser General Public License for more details.
   
   Cite this work as:
   * C. Bannwarth, E. Caldeweyher, S. Ehlert, A. Hansen, P. Pracht,
     J. Seibert, S. Spicher, S. Grimme, WIREs Comput. Mol. Sci., 2020, 11,
     e01493. DOI: 10.1002/wcms.1493
   
   for GFN2-xTB:
   * C. Bannwarth, S. Ehlert and S. Grimme., J. Chem. Theory Comput., 2019,
     15, 1652-1671. DOI: 10.1021/acs.jctc.8b01176
   for GFN1-xTB:
   * S. Grimme, C. Bannwarth, P. Shushkov, J. Chem. Theory Comput., 2017,
     13, 1989-2009. DOI: 10.1021/acs.jctc.7b00118
   for GFN0-xTB:
   * P. Pracht, E. Caldeweyher, S. Ehlert, S. Grimme, ChemRxiv, 2019, preprint.
     DOI: 10.26434/chemrxiv.8326202.v1
   for GFN-FF:
   * S. Spicher and S. Grimme, Angew. Chem. Int. Ed., 2020, 59, 15665-15673.
     DOI: 10.1002/anie.202004239
   
   for ALPB and GBSA implicit solvation:
   * S. Ehlert, M. Stahn, S. Spicher, S. Grimme, J. Chem. Theory Comput.,
     2021, 17, 4250-4261. DOI: 10.1021/acs.jctc.1c00471
   
   for DFT-D4:
   * E. Caldeweyher, C. Bannwarth and S. Grimme, J. Chem. Phys., 2017,
     147, 034112. DOI: 10.1063/1.4993215
   * E. Caldeweyher, S. Ehlert, A. Hansen, H. Neugebauer, S. Spicher,
     C. Bannwarth and S. Grimme, J. Chem. Phys., 2019, 150, 154122.
     DOI: 10.1063/1.5090222
   * E. Caldeweyher, J.-M. Mewes, S. Ehlert and S. Grimme, Phys. Chem. Chem. Phys.
     2020, 22, 8499-8512. DOI: 10.1039/D0CP00502A
   
   for sTDA-xTB:
   * S. Grimme and C. Bannwarth, J. Chem. Phys., 2016, 145, 054103.
     DOI: 10.1063/1.4959605
   
   in the mass-spec context:
   * V. Asgeirsson, C. Bauer and S. Grimme, Chem. Sci., 2017, 8, 4879.
     DOI: 10.1039/c7sc00601b
   * J. Koopman and S. Grimme, ACS Omega 2019, 4, 12, 15120-15133.
     DOI: 10.1021/acsomega.9b02011
   
   for metadynamics refer to:
   * S. Grimme, J. Chem. Theory Comput., 2019, 155, 2847-2862
     DOI: 10.1021/acs.jctc.9b00143
   
   for SPH calculations refer to:
   * S. Spicher and S. Grimme, J. Chem. Theory Comput., 2021, 17, 1701-1714
     DOI: 10.1021/acs.jctc.0c01306
   
   with help from (in alphabetical order)
   P. Atkinson, C. Bannwarth, F. Bohle, G. Brandenburg, E. Caldeweyher
   M. Checinski, S. Dohm, S. Ehlert, S. Ehrlich, I. Gerasimov, C. Hölzer
   A. Katbashev, J. Koopman, C. Lavigne, S. Lehtola, F. März, M. Müller,
   F. Musil, H. Neugebauer, J. Pisarek, C. Plett, P. Pracht, F. Pultar,
   J. Seibert, P. Shushkov, S. Spicher, M. Stahn, M. Steiner, T. Strunk,
   J. Stückrath, T. Rose, and J. Unsleber
   
 * started run on 2024/09/23 at 19:15:08.088     

           -------------------------------------------------
          |                Calculation Setup                |
           -------------------------------------------------

          program call               : xtb citric_acid.xyz --opt
          coordinate file            : citric_acid.xyz
          omp threads                :                     8

   ID    Z sym.   atoms
    1    6 C      1, 2, 5-7, 10
    2    8 O      3, 4, 8, 9, 11-13
    3    1 H      14-21

           -------------------------------------------------
          |                 G F N 2 - x T B                 |
           -------------------------------------------------

        Reference                      10.1021/acs.jctc.8b01176
      * Hamiltonian:
        H0-scaling (s, p, d)           1.850000    2.230000    2.230000
        zeta-weighting                 0.500000
      * Dispersion:
        s8                             2.700000
        a1                             0.520000
        a2                             5.000000
        s9                             5.000000
      * Repulsion:
        kExp                           1.500000    1.000000
        rExp                           1.000000
      * Coulomb:
        alpha                          2.000000
        third order                    shell-resolved
        anisotropic                    true
        a3                             3.000000
        a5                             4.000000
        cn-shift                       1.200000
        cn-exp                         4.000000
        max-rad                        5.000000


          ...................................................
          :                      SETUP                      :
          :.................................................:
          :  # basis functions                  60          :
          :  # atomic orbitals                  60          :
          :  # shells                           34          :
          :  # electrons                        74          :
          :  max. iterations                   250          :
          :  Hamiltonian                  GFN2-xTB          :
          :  restarted?                      false          :
          :  GBSA solvation                  false          :
          :  PC potential                    false          :
          :  electronic temp.          300.0000000     K    :
          :  accuracy                    1.0000000          :
          :  -> integral cutoff          0.2500000E+02      :
          :  -> integral neglect         0.1000000E-07      :
          :  -> SCF convergence          0.1000000E-05 Eh   :
          :  -> wf. convergence          0.1000000E-03 e    :
          :  Broyden damping             0.4000000          :
          ...................................................

 iter      E             dE          RMSdq      gap      omega  full diag
   1    -45.5026652 -0.455027E+02  0.531E+00    4.62       0.0  T
   2    -45.6050157 -0.102351E+00  0.266E+00    3.55       1.0  T
   3    -45.6213626 -0.163468E-01  0.180E+00    4.08       1.0  T
   4    -45.6354791 -0.141165E-01  0.248E-01    3.79       1.0  T
   5    -45.6359921 -0.513001E-03  0.919E-02    3.85       1.0  T
   6    -45.6360617 -0.696440E-04  0.360E-02    3.85       1.0  T
   7    -45.6360745 -0.127743E-04  0.170E-02    3.84       1.3  T
   8    -45.6360769 -0.239831E-05  0.730E-03    3.84       3.0  T
   9    -45.6360773 -0.369088E-06  0.357E-03    3.84       6.1  T
  10    -45.6360774 -0.168058E-06  0.103E-03    3.84      21.1  T
  11    -45.6360774 -0.917259E-08  0.484E-04    3.84      45.1  T
  12    -45.6360774 -0.112231E-08  0.107E-04    3.84     203.6  T

   *** convergence criteria satisfied after 12 iterations ***

         #    Occupation            Energy/Eh            Energy/eV
      -------------------------------------------------------------
         1        2.0000           -0.7505374             -20.4232
       ...           ...                  ...                  ...
        31        2.0000           -0.4862443             -13.2314
        32        2.0000           -0.4792417             -13.0408
        33        2.0000           -0.4782767             -13.0146
        34        2.0000           -0.4467660             -12.1571
        35        2.0000           -0.4450639             -12.1108
        36        2.0000           -0.4364703             -11.8770
        37        2.0000           -0.4276500             -11.6369 (HOMO)
        38                         -0.2865520              -7.7975 (LUMO)
        39                         -0.2812436              -7.6530
        40                         -0.2626680              -7.1476
        41                         -0.0747090              -2.0329
        42                         -0.0569429              -1.5495
       ...                                ...                  ...
        60                          0.4465468              12.1512
      -------------------------------------------------------------
                  HL-Gap            0.1410980 Eh            3.8395 eV
             Fermi-level           -0.3571010 Eh           -9.7172 eV

 SCC (total)                   0 d,  0 h,  0 min,  0.020 sec
 SCC setup                      ...        0 min,  0.000 sec (  2.028%)
 Dispersion                     ...        0 min,  0.000 sec (  0.546%)
 classical contributions        ...        0 min,  0.000 sec (  0.158%)
 integral evaluation            ...        0 min,  0.001 sec (  3.033%)
 iterations                     ...        0 min,  0.016 sec ( 83.785%)
 molecular gradient             ...        0 min,  0.002 sec (  9.598%)
 printout                       ...        0 min,  0.000 sec (  0.760%)

         :::::::::::::::::::::::::::::::::::::::::::::::::::::
         ::                     SUMMARY                     ::
         :::::::::::::::::::::::::::::::::::::::::::::::::::::
         :: total energy             -45.361466011297 Eh    ::
         :: gradient norm              0.234641232844 Eh/a0 ::
         :: HOMO-LUMO gap              3.839471075815 eV    ::
         ::.................................................::
         :: SCC energy               -45.636077443166 Eh    ::
         :: -> isotropic ES            0.168682395832 Eh    ::
         :: -> anisotropic ES          0.003870556745 Eh    ::
         :: -> anisotropic XC         -0.004675357682 Eh    ::
         :: -> dispersion             -0.017711617781 Eh    ::
         :: repulsion energy           0.274461442562 Eh    ::
         :: add. restraining           0.000000000000 Eh    ::
         :: total charge               0.000000000000 e     ::
         :::::::::::::::::::::::::::::::::::::::::::::::::::::

      ----------------------------------------------------------- 
     |                   =====================                   |
     |                        A N C O P T                        |
     |                   =====================                   |
     |               Approximate Normal Coordinate               |
     |                Rational Function Optimizer                |
      ----------------------------------------------------------- 

          ...................................................
          :                      SETUP                      :
          :.................................................:
          :   optimization level            normal          :
          :   max. optcycles                   200          :
          :   ANC micro-cycles                  20          :
          :   degrees of freedom                57          :
          :.................................................:
          :   RF solver                   davidson          :
          :   write xtbopt.log                true          :
          :   linear?                        false          :
          :   energy convergence         0.5000000E-05 Eh   :
          :   grad. convergence          0.1000000E-02 Eh/α :
          :   maxmium RF displ.          1.0000000          :
          :   Hlow (freq-cutoff)         0.1000000E-01      :
          :   Hmax (freq-cutoff)         5.0000000          :
          :   S6 in model hess.         20.0000000          :
          ...................................................

generating ANC from model Hessian ...
Using Lindh-Hessian (1995)
 Shifting diagonal of input Hessian by    8.5373706272668642E-003
 Lowest  eigenvalues of input Hessian
    0.000000    0.000000    0.000000    0.000000    0.000000    0.000000
    0.010000    0.010140    0.011369    0.012197    0.013773    0.015472
    0.018426    0.022475    0.022979    0.025429    0.026234    0.038265
 Highest eigenvalues
    1.617396    1.629788    1.640927    2.012331    2.017650    2.018685


........................................................................
.............................. CYCLE    1 ..............................
........................................................................

 iter      E             dE          RMSdq      gap      omega  full diag
   1    -45.6360774 -0.456361E+02  0.823E-05    3.84       0.0  T
   2    -45.6360774 -0.632241E-10  0.467E-05    3.84     467.2  T
   3    -45.6360774 -0.335589E-10  0.184E-05    3.84    1185.2  T
     SCC iter.                  ...        0 min,  0.002 sec
     gradient                   ...        0 min,  0.002 sec
 * total energy  :   -45.3614660 Eh     change       -0.6403411E-10 Eh
   gradient norm :     0.2346437 Eh/α   predicted     0.0000000E+00 (-100.00%)
   displ. norm   :     0.3963288 α      lambda       -0.5262931E-01
   maximum displ.:     0.1696661 α      in ANC's #27, #26, #31, ...

........................................................................
.............................. CYCLE    2 ..............................
........................................................................

 iter      E             dE          RMSdq      gap      omega  full diag
   1    -45.7279585 -0.457280E+02  0.355E-01    4.33       0.0  T
   2    -45.7287180 -0.759485E-03  0.227E-01    4.27       1.0  T
   3    -45.7287868 -0.687866E-04  0.118E-01    4.29       1.0  T
   4    -45.7288083 -0.215067E-04  0.196E-02    4.28       1.1  T
   5    -45.7288118 -0.343186E-05  0.899E-03    4.28       2.4  T
   6    -45.7288121 -0.325422E-06  0.245E-03    4.28       8.9  T
   7    -45.7288121 -0.171639E-07  0.120E-03    4.28      18.3  T
   8    -45.7288121 -0.545523E-08  0.444E-04    4.28      49.1  T
   9    -45.7288121 -0.364025E-09  0.133E-04    4.28     163.8  T
     SCC iter.                  ...        0 min,  0.004 sec
     gradient                   ...        0 min,  0.002 sec
 * total energy  :   -45.3992589 Eh     change       -0.3779291E-01 Eh
   gradient norm :     0.0833927 Eh/α   predicted    -0.3046892E-01 ( -19.38%)
   displ. norm   :     0.4119967 α      lambda       -0.1817946E-01
   maximum displ.:     0.1751369 α      in ANC's #14, #26, #27, ...

........................................................................
.............................. CYCLE    3 ..............................
........................................................................

 iter      E             dE          RMSdq      gap      omega  full diag
   1    -45.7752584 -0.457753E+02  0.268E-01    4.49       0.0  T
   2    -45.7754890 -0.230636E-03  0.168E-01    4.46       1.0  T
   3    -45.7754951 -0.611926E-05  0.680E-02    4.47       1.0  T
   4    -45.7755120 -0.168304E-04  0.111E-02    4.46       2.0  T
   5    -45.7755128 -0.805312E-06  0.509E-03    4.46       4.3  T
   6    -45.7755129 -0.102858E-06  0.140E-03    4.46      15.6  T
   7    -45.7755129 -0.208632E-08  0.493E-04    4.46      44.3  T
   8    -45.7755129 -0.322643E-09  0.207E-04    4.46     105.4  T
     SCC iter.                  ...        0 min,  0.004 sec
     gradient                   ...        0 min,  0.001 sec
 * total energy  :   -45.4097246 Eh     change       -0.1046571E-01 Eh
   gradient norm :     0.0281761 Eh/α   predicted    -0.1063456E-01 (   1.61%)
   displ. norm   :     0.2868008 α      lambda       -0.2994235E-02
   maximum displ.:     0.1175762 α      in ANC's #12, #6, #1, ...

........................................................................
.............................. CYCLE    4 ..............................
........................................................................

 iter      E             dE          RMSdq      gap      omega  full diag
   1    -45.7727518 -0.457728E+02  0.175E-01    4.40       0.0  T
   2    -45.7728073 -0.554428E-04  0.103E-01    4.41       1.0  T
   3    -45.7728072  0.385802E-07  0.290E-02    4.40       1.0  T
   4    -45.7728094 -0.218865E-05  0.593E-03    4.41       3.7  T
   5    -45.7728098 -0.402733E-06  0.281E-03    4.40       7.8  T
   6    -45.7728098 -0.100178E-07  0.109E-03    4.40      20.0  T
   7    -45.7728098 -0.254804E-08  0.245E-04    4.40      89.0  T
   8    -45.7728098 -0.134499E-09  0.893E-05    4.40     244.3  T
     SCC iter.                  ...        0 min,  0.005 sec
     gradient                   ...        0 min,  0.002 sec
 * total energy  :   -45.4115236 Eh     change       -0.1798953E-02 Eh
   gradient norm :     0.0120745 Eh/α   predicted    -0.1620264E-02 (  -9.93%)
   displ. norm   :     0.2864863 α      lambda       -0.1165585E-02
   maximum displ.:     0.1903919 α      in ANC's #1, #6, #9, ...

........................................................................
.............................. CYCLE    5 ..............................
........................................................................

 iter      E             dE          RMSdq      gap      omega  full diag
   1    -45.7729862 -0.457730E+02  0.115E-01    4.38       0.0  T
   2    -45.7730089 -0.226847E-04  0.667E-02    4.38       1.0  T
   3    -45.7730085  0.401418E-06  0.210E-02    4.38       1.0  T
   4    -45.7730107 -0.222216E-05  0.463E-03    4.38       4.7  T
   5    -45.7730109 -0.197589E-06  0.205E-03    4.38      10.7  T
   6    -45.7730109 -0.361690E-08  0.697E-04    4.38      31.3  T
   7    -45.7730109 -0.152792E-08  0.174E-04    4.38     125.2  T
     SCC iter.                  ...        0 min,  0.005 sec
     gradient                   ...        0 min,  0.002 sec
 * total energy  :   -45.4122251 Eh     change       -0.7015434E-03 Eh
   gradient norm :     0.0134674 Eh/α   predicted    -0.6307679E-03 ( -10.09%)
   displ. norm   :     0.2869529 α      lambda       -0.8637080E-03
   maximum displ.:     0.2196810 α      in ANC's #1, #6, #2, ...

........................................................................
.............................. CYCLE    6 ..............................
........................................................................

 iter      E             dE          RMSdq      gap      omega  full diag
   1    -45.7728621 -0.457729E+02  0.140E-01    4.36       0.0  T
   2    -45.7728691 -0.698302E-05  0.830E-02    4.36       1.0  T
   3    -45.7728677  0.138974E-05  0.145E-02    4.36       1.5  T
   4    -45.7728707 -0.294296E-05  0.387E-03    4.36       5.6  T
   5    -45.7728707 -0.307099E-07  0.198E-03    4.36      11.0  T
   6    -45.7728707 -0.588884E-08  0.520E-04    4.36      42.0  T
   7    -45.7728707 -0.679350E-09  0.189E-04    4.36     115.7  T
     SCC iter.                  ...        0 min,  0.004 sec
     gradient                   ...        0 min,  0.001 sec
 * total energy  :   -45.4128873 Eh     change       -0.6621748E-03 Eh
   gradient norm :     0.0164864 Eh/α   predicted    -0.4674271E-03 ( -29.41%)
   displ. norm   :     0.3732952 α      lambda       -0.1113646E-02
   maximum displ.:     0.3105525 α      in ANC's #1, #2, #5, ...

........................................................................
.............................. CYCLE    7 ..............................
........................................................................

 iter      E             dE          RMSdq      gap      omega  full diag
   1    -45.7748768 -0.457749E+02  0.141E-01    4.39       0.0  T
   2    -45.7748878 -0.109760E-04  0.821E-02    4.38       1.0  T
   3    -45.7748854  0.240933E-05  0.203E-02    4.38       1.1  T
   4    -45.7748898 -0.446119E-05  0.412E-03    4.38       5.3  T
   5    -45.7748899 -0.577776E-07  0.223E-03    4.38       9.8  T
   6    -45.7748899 -0.305014E-08  0.445E-04    4.38      49.0  T
   7    -45.7748899 -0.141036E-08  0.170E-04    4.38     128.7  T
     SCC iter.                  ...        0 min,  0.005 sec
     gradient                   ...        0 min,  0.002 sec
 * total energy  :   -45.4137418 Eh     change       -0.8544687E-03 Eh
   gradient norm :     0.0119845 Eh/α   predicted    -0.6344426E-03 ( -25.75%)
   displ. norm   :     0.4495123 α      lambda       -0.1046363E-02
   maximum displ.:     0.3725705 α      in ANC's #1, #2, #8, ...

........................................................................
.............................. CYCLE    8 ..............................
........................................................................

 iter      E             dE          RMSdq      gap      omega  full diag
   1    -45.7733849 -0.457734E+02  0.187E-01    4.33       0.0  T
   2    -45.7733944 -0.952323E-05  0.110E-01    4.33       1.0  T
   3    -45.7733939  0.508216E-06  0.157E-02    4.33       1.4  T
   4    -45.7733968 -0.291801E-05  0.503E-03    4.33       4.3  T
   5    -45.7733969 -0.493419E-07  0.270E-03    4.33       8.1  T
   6    -45.7733969 -0.896934E-08  0.529E-04    4.33      41.3  T
   7    -45.7733969 -0.174784E-08  0.214E-04    4.33     102.0  T
     SCC iter.                  ...        0 min,  0.004 sec
     gradient                   ...        0 min,  0.001 sec
 * total energy  :   -45.4144128 Eh     change       -0.6710442E-03 Eh
   gradient norm :     0.0240763 Eh/α   predicted    -0.6288970E-03 (  -6.28%)
   displ. norm   :     0.3758473 α      lambda       -0.1272751E-02
   maximum displ.:     0.3416688 α      in ANC's #1, #8, #2, ...

........................................................................
.............................. CYCLE    9 ..............................
........................................................................

 iter      E             dE          RMSdq      gap      omega  full diag
   1    -45.7792123 -0.457792E+02  0.124E-01    4.46       0.0  T
   2    -45.7792484 -0.361405E-04  0.749E-02    4.44       1.0  T
   3    -45.7792493 -0.871678E-06  0.350E-02    4.45       1.0  T
   4    -45.7792555 -0.624168E-05  0.414E-03    4.44       5.3  T
   5    -45.7792556 -0.550765E-07  0.246E-03    4.44       8.9  T
   6    -45.7792556 -0.145886E-07  0.939E-04    4.44      23.2  T
   7    -45.7792556 -0.164552E-08  0.329E-04    4.44      66.4  T
     SCC iter.                  ...        0 min,  0.003 sec
     gradient                   ...        0 min,  0.001 sec
 * total energy  :   -45.4150305 Eh     change       -0.6176559E-03 Eh
   gradient norm :     0.0142874 Eh/α   predicted    -0.7262717E-03 (  17.59%)
   displ. norm   :     0.3836873 α      lambda       -0.7715766E-03
   maximum displ.:     0.3208949 α      in ANC's #1, #8, #2, ...

........................................................................
.............................. CYCLE   10 ..............................
........................................................................

 iter      E             dE          RMSdq      gap      omega  full diag
   1    -45.7758462 -0.457758E+02  0.167E-01    4.38       0.0  T
   2    -45.7758776 -0.313697E-04  0.990E-02    4.38       1.0  T
   3    -45.7758744  0.320129E-05  0.333E-02    4.37       1.0  T
   4    -45.7758828 -0.847042E-05  0.534E-03    4.38       4.1  T
   5    -45.7758829 -0.121023E-06  0.303E-03    4.38       7.2  T
   6    -45.7758830 -0.926193E-08  0.111E-03    4.38      19.6  T
   7    -45.7758830 -0.630909E-08  0.234E-04    4.38      93.3  T
   8    -45.7758830 -0.236547E-09  0.106E-04    4.38     205.8  T
     SCC iter.                  ...        0 min,  0.006 sec
     gradient                   ...        0 min,  0.002 sec
 * total energy  :   -45.4153964 Eh     change       -0.3659430E-03 Eh
   gradient norm :     0.0166528 Eh/α   predicted    -0.4425839E-03 (  20.94%)
   displ. norm   :     0.1139095 α      lambda       -0.5503920E-03
   maximum displ.:     0.0597307 α      in ANC's #3, #26, #8, ...

........................................................................
.............................. CYCLE   11 ..............................
........................................................................

 iter      E             dE          RMSdq      gap      omega  full diag
   1    -45.7771544 -0.457772E+02  0.792E-02    4.42       0.0  T
   2    -45.7772002 -0.457122E-04  0.450E-02    4.42       1.0  T
   3    -45.7772032 -0.301238E-05  0.249E-02    4.42       1.0  T
   4    -45.7772035 -0.364331E-06  0.687E-03    4.42       3.2  T
   5    -45.7772039 -0.373354E-06  0.122E-03    4.42      17.9  T
   6    -45.7772039 -0.328653E-08  0.677E-04    4.42      32.2  T
   7    -45.7772039 -0.883958E-09  0.251E-04    4.42      87.0  T
     SCC iter.                  ...        0 min,  0.004 sec
     gradient                   ...        0 min,  0.001 sec
 * total energy  :   -45.4157366 Eh     change       -0.3402248E-03 Eh
   gradient norm :     0.0116568 Eh/α   predicted    -0.2787677E-03 ( -18.06%)
   displ. norm   :     0.1994152 α      lambda       -0.4143676E-03
   maximum displ.:     0.1513304 α      in ANC's #1, #8, #26, ...

........................................................................
.............................. CYCLE   12 ..............................
........................................................................

 iter      E             dE          RMSdq      gap      omega  full diag
   1    -45.7783386 -0.457783E+02  0.810E-02    4.46       0.0  T
   2    -45.7783466 -0.800540E-05  0.477E-02    4.45       1.0  T
   3    -45.7783464  0.248093E-06  0.128E-02    4.45       1.7  T
   4    -45.7783473 -0.916824E-06  0.300E-03    4.45       7.3  T
   5    -45.7783474 -0.889312E-07  0.145E-03    4.45      15.0  T
   6    -45.7783474 -0.291482E-08  0.536E-04    4.45      40.7  T
   7    -45.7783474 -0.667853E-09  0.156E-04    4.45     139.9  T
     SCC iter.                  ...        0 min,  0.004 sec
     gradient                   ...        0 min,  0.001 sec
 * total energy  :   -45.4159714 Eh     change       -0.2348023E-03 Eh
   gradient norm :     0.0081628 Eh/α   predicted    -0.2154237E-03 (  -8.25%)
   displ. norm   :     0.2701671 α      lambda       -0.2836940E-03
   maximum displ.:     0.2075105 α      in ANC's #1, #8, #7, ...

........................................................................
.............................. CYCLE   13 ..............................
........................................................................

 iter      E             dE          RMSdq      gap      omega  full diag
   1    -45.7763204 -0.457763E+02  0.107E-01    4.45       0.0  T
   2    -45.7763318 -0.114055E-04  0.622E-02    4.45       1.0  T
   3    -45.7763310  0.802017E-06  0.180E-02    4.45       1.2  T
   4    -45.7763332 -0.219247E-05  0.375E-03    4.45       5.8  T
   5    -45.7763333 -0.104829E-06  0.188E-03    4.45      11.6  T
   6    -45.7763333 -0.390330E-08  0.641E-04    4.45      34.0  T
   7    -45.7763333 -0.111879E-08  0.166E-04    4.45     131.2  T
     SCC iter.                  ...        0 min,  0.003 sec
     gradient                   ...        0 min,  0.002 sec
 * total energy  :   -45.4161300 Eh     change       -0.1586055E-03 Eh
   gradient norm :     0.0114891 Eh/α   predicted    -0.1522015E-03 (  -4.04%)
   displ. norm   :     0.1335661 α      lambda       -0.2652560E-03
   maximum displ.:     0.0792329 α      in ANC's #10, #7, #9, ...

........................................................................
.............................. CYCLE   14 ..............................
........................................................................

 iter      E             dE          RMSdq      gap      omega  full diag
   1    -45.7781545 -0.457782E+02  0.586E-02    4.47       0.0  T
   2    -45.7781647 -0.102198E-04  0.341E-02    4.47       1.0  T
   3    -45.7781653 -0.668394E-06  0.174E-02    4.47       1.3  T
   4    -45.7781663 -0.911904E-06  0.263E-03    4.47       8.3  T
   5    -45.7781663 -0.345043E-07  0.124E-03    4.47      17.6  T
   6    -45.7781663 -0.112443E-08  0.547E-04    4.47      39.9  T
   7    -45.7781663 -0.119984E-08  0.845E-05    4.47     258.4  T
     SCC iter.                  ...        0 min,  0.005 sec
     gradient                   ...        0 min,  0.002 sec
 * total energy  :   -45.4162897 Eh     change       -0.1596209E-03 Eh
   gradient norm :     0.0080040 Eh/α   predicted    -0.1349957E-03 ( -15.43%)
   displ. norm   :     0.1840428 α      lambda       -0.2551623E-03
   maximum displ.:     0.0737120 α      in ANC's #10, #7, #9, ...

........................................................................
.............................. CYCLE   15 ..............................
........................................................................

 iter      E             dE          RMSdq      gap      omega  full diag
   1    -45.7780089 -0.457780E+02  0.850E-02    4.47       0.0  T
   2    -45.7780183 -0.941028E-05  0.498E-02    4.47       1.0  T
   3    -45.7780185 -0.226809E-06  0.139E-02    4.47       1.6  T
   4    -45.7780191 -0.625035E-06  0.315E-03    4.47       6.9  T
   5    -45.7780192 -0.594222E-07  0.164E-03    4.47      13.3  T
   6    -45.7780192 -0.371611E-08  0.635E-04    4.47      34.4  T
   7    -45.7780192 -0.108224E-08  0.134E-04    4.47     162.3  T
     SCC iter.                  ...        0 min,  0.004 sec
     gradient                   ...        0 min,  0.002 sec
 * total energy  :   -45.4164386 Eh     change       -0.1488828E-03 Eh
   gradient norm :     0.0070645 Eh/α   predicted    -0.1319111E-03 ( -11.40%)
   displ. norm   :     0.0903443 α      lambda       -0.1334257E-03
   maximum displ.:     0.0471753 α      in ANC's #1, #9, #2, ...

........................................................................
.............................. CYCLE   16 ..............................
........................................................................

 iter      E             dE          RMSdq      gap      omega  full diag
   1    -45.7789846 -0.457790E+02  0.430E-02    4.47       0.0  T
   2    -45.7789889 -0.423433E-05  0.249E-02    4.48       1.0  T
   3    -45.7789889 -0.167065E-07  0.106E-02    4.48       2.1  T
   4    -45.7789892 -0.339093E-06  0.184E-03    4.48      11.9  T
   5    -45.7789893 -0.333153E-07  0.706E-04    4.48      30.9  T
   6    -45.7789893 -0.706855E-09  0.321E-04    4.48      67.9  T
     SCC iter.                  ...        0 min,  0.003 sec
     gradient                   ...        0 min,  0.001 sec
 * total energy  :   -45.4165210 Eh     change       -0.8244553E-04 Eh
   gradient norm :     0.0058007 Eh/α   predicted    -0.6726107E-04 ( -18.42%)
   displ. norm   :     0.0796509 α      lambda       -0.9722217E-04
   maximum displ.:     0.0439140 α      in ANC's #11, #2, #9, ...

........................................................................
.............................. CYCLE   17 ..............................
........................................................................

 iter      E             dE          RMSdq      gap      omega  full diag
   1    -45.7785793 -0.457786E+02  0.399E-02    4.47       0.0  T
   2    -45.7785809 -0.161525E-05  0.233E-02    4.47       1.0  T
   3    -45.7785809  0.499217E-07  0.676E-03    4.47       3.2  T
   4    -45.7785811 -0.242975E-06  0.142E-03    4.47      15.3  T
   5    -45.7785811 -0.113519E-07  0.686E-04    4.47      31.8  T
   6    -45.7785811 -0.544006E-09  0.243E-04    4.47      89.6  T
     SCC iter.                  ...        0 min,  0.002 sec
     gradient                   ...        0 min,  0.002 sec
 * total energy  :   -45.4165838 Eh     change       -0.6279577E-04 Eh
   gradient norm :     0.0052998 Eh/α   predicted    -0.4892236E-04 ( -22.09%)
   displ. norm   :     0.1084437 α      lambda       -0.7310542E-04
   maximum displ.:     0.0518830 α      in ANC's #11, #2, #10, ...

........................................................................
.............................. CYCLE   18 ..............................
........................................................................

 iter      E             dE          RMSdq      gap      omega  full diag
   1    -45.7776715 -0.457777E+02  0.544E-02    4.47       0.0  T
   2    -45.7776725 -0.972262E-06  0.322E-02    4.47       1.0  T
   3    -45.7776725 -0.142117E-07  0.514E-03    4.47       4.2  T
   4    -45.7776728 -0.247526E-06  0.171E-03    4.47      12.8  T
   5    -45.7776728 -0.468935E-08  0.825E-04    4.47      26.4  T
   6    -45.7776728 -0.144210E-08  0.198E-04    4.47     110.4  T
     SCC iter.                  ...        0 min,  0.004 sec
     gradient                   ...        0 min,  0.002 sec
 * total energy  :   -45.4166331 Eh     change       -0.4930271E-04 Eh
   gradient norm :     0.0061068 Eh/α   predicted    -0.3698410E-04 ( -24.99%)
   displ. norm   :     0.1122148 α      lambda       -0.9381908E-04
   maximum displ.:     0.0689152 α      in ANC's #2, #11, #8, ...

........................................................................
.............................. CYCLE   19 ..............................
........................................................................

 iter      E             dE          RMSdq      gap      omega  full diag
   1    -45.7784117 -0.457784E+02  0.569E-02    4.47       0.0  T
   2    -45.7784136 -0.192736E-05  0.332E-02    4.46       1.0  T
   3    -45.7784132  0.385606E-06  0.926E-03    4.46       2.4  T
   4    -45.7784141 -0.825807E-06  0.183E-03    4.46      11.9  T
   5    -45.7784141 -0.893007E-08  0.920E-04    4.46      23.7  T
   6    -45.7784141 -0.910077E-09  0.337E-04    4.46      64.8  T
     SCC iter.                  ...        0 min,  0.004 sec
     gradient                   ...        0 min,  0.001 sec
 * total energy  :   -45.4166850 Eh     change       -0.5190282E-04 Eh
   gradient norm :     0.0046620 Eh/α   predicted    -0.4750567E-04 (  -8.47%)
   displ. norm   :     0.1496712 α      lambda       -0.7503365E-04
   maximum displ.:     0.0654045 α      in ANC's #2, #11, #8, ...

........................................................................
.............................. CYCLE   20 ..............................
........................................................................

 iter      E             dE          RMSdq      gap      omega  full diag
   1    -45.7774226 -0.457774E+02  0.770E-02    4.45       0.0  T
   2    -45.7774257 -0.314335E-05  0.451E-02    4.45       1.0  T
   3    -45.7774255  0.226041E-06  0.958E-03    4.45       2.3  T
   4    -45.7774263 -0.793708E-06  0.257E-03    4.45       8.5  T
   5    -45.7774263 -0.282431E-07  0.136E-03    4.45      16.0  T
   6    -45.7774263 -0.199547E-08  0.368E-04    4.45      59.3  T
   7    -45.7774263 -0.482828E-09  0.894E-05    4.45     244.1  T
     SCC iter.                  ...        0 min,  0.003 sec
     gradient                   ...        0 min,  0.001 sec
 * total energy  :   -45.4167268 Eh     change       -0.4183569E-04 Eh
   gradient norm :     0.0057937 Eh/α   predicted    -0.3835872E-04 (  -8.31%)
   displ. norm   :     0.0948061 α      lambda       -0.6918159E-04
   maximum displ.:     0.0455684 α      in ANC's #2, #8, #4, ...
 * RMSD in coord.:     0.6994426 α      energy gain  -0.5526082E-01 Eh

generating ANC from model Hessian ...
Using Lindh-Hessian (1995)
 Shifting diagonal of input Hessian by    8.1985292168991562E-003
 Lowest  eigenvalues of input Hessian
    0.000000    0.000000    0.000000    0.000000    0.000000    0.000000
    0.010000    0.010738    0.011462    0.012101    0.013980    0.015437
    0.019723    0.023574    0.024684    0.026137    0.027444    0.041464
 Highest eigenvalues
    1.743898    1.754635    1.777296    2.365465    2.374403    2.395038


........................................................................
.............................. CYCLE   21 ..............................
........................................................................

 iter      E             dE          RMSdq      gap      omega  full diag
   1    -45.7782713 -0.457783E+02  0.467E-02    4.45       0.0  T
   2    -45.7782721 -0.808201E-06  0.275E-02    4.45       1.0  T
   3    -45.7782720  0.106369E-06  0.496E-03    4.45       4.4  T
   4    -45.7782723 -0.310642E-06  0.140E-03    4.45      15.6  T
   5    -45.7782723 -0.556935E-08  0.701E-04    4.45      31.1  T
   6    -45.7782723 -0.525731E-09  0.207E-04    4.45     105.2  T
     SCC iter.                  ...        0 min,  0.003 sec
     gradient                   ...        0 min,  0.002 sec
 * total energy  :   -45.4167697 Eh     change       -0.4291262E-04 Eh
   gradient norm :     0.0041350 Eh/α   predicted     0.0000000E+00 (-100.00%)
   displ. norm   :     0.0319347 α      lambda       -0.3317057E-04
   maximum displ.:     0.0209624 α      in ANC's #6, #3, #9, ...

........................................................................
.............................. CYCLE   22 ..............................
........................................................................

 iter      E             dE          RMSdq      gap      omega  full diag
   1    -45.7790257 -0.457790E+02  0.183E-02    4.45       0.0  T
   2    -45.7790261 -0.387580E-06  0.109E-02    4.45       2.0  T
   3    -45.7790261  0.551820E-07  0.399E-03    4.45       5.5  T
   4    -45.7790262 -0.126818E-06  0.503E-04    4.45      43.4  T
   5    -45.7790262 -0.617327E-09  0.287E-04    4.45      76.1  T
     SCC iter.                  ...        0 min,  0.002 sec
     gradient                   ...        0 min,  0.002 sec
 * total energy  :   -45.4167941 Eh     change       -0.2437463E-04 Eh
   gradient norm :     0.0015383 Eh/α   predicted    -0.1759723E-04 ( -27.81%)
   displ. norm   :     0.0694007 α      lambda       -0.2375155E-04
   maximum displ.:     0.0482437 α      in ANC's #6, #3, #9, ...

........................................................................
.............................. CYCLE   23 ..............................
........................................................................

 iter      E             dE          RMSdq      gap      omega  full diag
   1    -45.7796270 -0.457796E+02  0.373E-02    4.46       0.0  T
   2    -45.7796278 -0.780137E-06  0.219E-02    4.46       1.0  T
   3    -45.7796276  0.150306E-06  0.531E-03    4.46       4.1  T
   4    -45.7796279 -0.301616E-06  0.105E-03    4.46      20.8  T
   5    -45.7796279 -0.363065E-08  0.565E-04    4.46      38.6  T
   6    -45.7796279 -0.373248E-09  0.173E-04    4.46     126.0  T
     SCC iter.                  ...        0 min,  0.002 sec
     gradient                   ...        0 min,  0.002 sec
 * total energy  :   -45.4168108 Eh     change       -0.1668295E-04 Eh
   gradient norm :     0.0024584 Eh/α   predicted    -0.1192109E-04 ( -28.54%)
   displ. norm   :     0.0221066 α      lambda       -0.8820591E-05
   maximum displ.:     0.0125456 α      in ANC's #6, #8, #9, ...

........................................................................
.............................. CYCLE   24 ..............................
........................................................................

 iter      E             dE          RMSdq      gap      omega  full diag
   1    -45.7793357 -0.457793E+02  0.124E-02    4.46       0.0  T
   2    -45.7793358 -0.598358E-07  0.735E-03    4.46       3.0  T
   3    -45.7793358  0.130147E-08  0.113E-03    4.46      19.3  T
   4    -45.7793358 -0.133834E-07  0.351E-04    4.46      62.1  T
   5    -45.7793358 -0.248299E-09  0.190E-04    4.46     115.1  T
     SCC iter.                  ...        0 min,  0.002 sec
     gradient                   ...        0 min,  0.001 sec
 * total energy  :   -45.4168179 Eh     change       -0.7125212E-05 Eh
   gradient norm :     0.0013926 Eh/α   predicted    -0.4414717E-05 ( -38.04%)
   displ. norm   :     0.0922209 α      lambda       -0.1808594E-04
   maximum displ.:     0.0469525 α      in ANC's #6, #8, #9, ...

........................................................................
.............................. CYCLE   25 ..............................
........................................................................

 iter      E             dE          RMSdq      gap      omega  full diag
   1    -45.7783949 -0.457784E+02  0.486E-02    4.46       0.0  T
   2    -45.7783956 -0.749621E-06  0.286E-02    4.46       1.0  T
   3    -45.7783956  0.491611E-07  0.455E-03    4.46       4.8  T
   4    -45.7783958 -0.245493E-06  0.137E-03    4.46      15.9  T
   5    -45.7783958 -0.271012E-08  0.695E-04    4.46      31.4  T
   6    -45.7783958 -0.861547E-09  0.170E-04    4.46     128.1  T
     SCC iter.                  ...        0 min,  0.003 sec
     gradient                   ...        0 min,  0.001 sec
 * total energy  :   -45.4168296 Eh     change       -0.1169223E-04 Eh
   gradient norm :     0.0031262 Eh/α   predicted    -0.9085266E-05 ( -22.30%)
   displ. norm   :     0.0136485 α      lambda       -0.5951504E-05
   maximum displ.:     0.0063344 α      in ANC's #1, #8, #5, ...

........................................................................
.............................. CYCLE   26 ..............................
........................................................................

 iter      E             dE          RMSdq      gap      omega  full diag
   1    -45.7786846 -0.457787E+02  0.567E-03    4.46       0.0  T
   2    -45.7786847 -0.432131E-07  0.334E-03    4.46       6.5  T
   3    -45.7786846  0.349760E-08  0.111E-03    4.46      19.6  T
   4    -45.7786847 -0.893089E-08  0.188E-04    4.46     116.1  T
   5    -45.7786847 -0.202292E-09  0.101E-04    4.46     216.2  T
     SCC iter.                  ...        0 min,  0.003 sec
     gradient                   ...        0 min,  0.001 sec
 * total energy  :   -45.4168346 Eh     change       -0.5008490E-05 Eh
   gradient norm :     0.0019071 Eh/α   predicted    -0.2977475E-05 ( -40.55%)
   displ. norm   :     0.0850898 α      lambda       -0.1303159E-04
   maximum displ.:     0.0433386 α      in ANC's #8, #1, #2, ...

........................................................................
.............................. CYCLE   27 ..............................
........................................................................

 iter      E             dE          RMSdq      gap      omega  full diag
   1    -45.7794968 -0.457795E+02  0.385E-02    4.46       0.0  T
   2    -45.7794975 -0.736847E-06  0.226E-02    4.46       1.0  T
   3    -45.7794973  0.170359E-06  0.525E-03    4.46       4.2  T
   4    -45.7794977 -0.315534E-06  0.993E-04    4.46      22.0  T
   5    -45.7794977 -0.315043E-08  0.567E-04    4.46      38.5  T
     SCC iter.                  ...        0 min,  0.003 sec
     gradient                   ...        0 min,  0.001 sec
 * total energy  :   -45.4168429 Eh     change       -0.8271889E-05 Eh
   gradient norm :     0.0020230 Eh/α   predicted    -0.6542985E-05 ( -20.90%)
   displ. norm   :     0.0207063 α      lambda       -0.3443351E-05
   maximum displ.:     0.0111573 α      in ANC's #8, #6, #9, ...

........................................................................
.............................. CYCLE   28 ..............................
........................................................................

 iter      E             dE          RMSdq      gap      omega  full diag
   1    -45.7793472 -0.457793E+02  0.107E-02    4.46       0.0  T
   2    -45.7793472 -0.367984E-07  0.630E-03    4.46       3.5  T
   3    -45.7793472 -0.130938E-08  0.815E-04    4.46      26.8  T
   4    -45.7793472 -0.654503E-08  0.296E-04    4.46      73.8  T
     SCC iter.                  ...        0 min,  0.003 sec
     gradient                   ...        0 min,  0.001 sec
 * total energy  :   -45.4168457 Eh     change       -0.2810873E-05 Eh
   gradient norm :     0.0012406 Eh/α   predicted    -0.1726243E-05 ( -38.59%)
   displ. norm   :     0.0851020 α      lambda       -0.7175877E-05
   maximum displ.:     0.0456193 α      in ANC's #8, #9, #6, ...

........................................................................
.............................. CYCLE   29 ..............................
........................................................................

 iter      E             dE          RMSdq      gap      omega  full diag
   1    -45.7787102 -0.457787E+02  0.442E-02    4.46       0.0  T
   2    -45.7787107 -0.525809E-06  0.260E-02    4.46       1.0  T
   3    -45.7787108 -0.167049E-07  0.314E-03    4.46       7.0  T
   4    -45.7787109 -0.105919E-06  0.117E-03    4.46      18.6  T
   5    -45.7787109 -0.421478E-08  0.651E-04    4.46      33.5  T
   6    -45.7787109 -0.789548E-09  0.149E-04    4.46     146.8  T
     SCC iter.                  ...        0 min,  0.002 sec
     gradient                   ...        0 min,  0.001 sec
 * total energy  :   -45.4168494 Eh     change       -0.3653982E-05 Eh
   gradient norm :     0.0019236 Eh/α   predicted    -0.3606925E-05 (  -1.29%)
   displ. norm   :     0.0167121 α      lambda       -0.2773576E-05
   maximum displ.:     0.0116229 α      in ANC's #6, #11, #2, ...

........................................................................
.............................. CYCLE   30 ..............................
........................................................................

 iter      E             dE          RMSdq      gap      omega  full diag
   1    -45.7790330 -0.457790E+02  0.962E-03    4.46       0.0  T
   2    -45.7790330 -0.894717E-07  0.567E-03    4.46       3.9  T
   3    -45.7790330  0.264699E-08  0.136E-03    4.46      16.1  T
   4    -45.7790330 -0.119405E-07  0.311E-04    4.46      70.1  T
   5    -45.7790331 -0.543174E-09  0.172E-04    4.46     126.8  T
     SCC iter.                  ...        0 min,  0.002 sec
     gradient                   ...        0 min,  0.002 sec
 * total energy  :   -45.4168522 Eh     change       -0.2861394E-05 Eh
   gradient norm :     0.0006237 Eh/α   predicted    -0.1390098E-05 ( -51.42%)
   displ. norm   :     0.0316522 α      lambda       -0.2032056E-05
   maximum displ.:     0.0158601 α      in ANC's #1, #10, #8, ...

   *** GEOMETRY OPTIMIZATION CONVERGED AFTER 30 ITERATIONS ***

------------------------------------------------------------------------
 total energy gain   :        -0.0553862 Eh      -34.7554 kcal/mol
 total RMSD          :         0.7172993 a0        0.3796 Å
 total power (kW/mol):        -4.8472164 (step) -736.1181 (real)
------------------------------------------------------------------------

 ANCopt (total)                0 d,  0 h,  0 min,  0.198 sec
 optimizer setup                ...        0 min,  0.000 sec (  0.045%)
 model hessian                  ...        0 min,  0.018 sec (  9.112%)
 ANC generation                 ...        0 min,  0.001 sec (  0.297%)
 coordinate transformation      ...        0 min,  0.000 sec (  0.079%)
 single point calculation       ...        0 min,  0.172 sec ( 86.930%)
 optimization log               ...        0 min,  0.003 sec (  1.458%)
 hessian update                 ...        0 min,  0.000 sec (  0.134%)
 rational function              ...        0 min,  0.003 sec (  1.427%)

================
 final structure:
================
21
 xtb: 6.6.0 (conda-forge)
C            0.95682486483486       -0.90996296408380       -0.02110432837583
C            1.88507932833477        0.26076468338330        0.18495001394253
O            2.43800677058465        0.87366407444421       -0.68660635315826
O            2.04496160955255        0.54804958613689        1.48272749128836
C           -0.53617465939391       -0.55116493950729        0.21593971809067
C           -1.06621747705360        0.43818243718026       -0.84910339366874
C           -0.40023456732382        1.79273711718005       -0.92212693089824
O           -0.28632365711291        2.42929011804443       -1.92893407463504
O            0.00244559609102        2.26394974235814        0.27225108306274
C           -1.34243796537021       -1.85171536708392        0.03519573917767
O           -2.08463056309491       -2.32390093292199        0.84127804772389
O           -1.12044828175557       -2.40260787205676       -1.16591364337238
O           -0.78451446184454       -0.12702158924349        1.51767477931196
H            1.22544817403498       -1.68350417954053        0.70106227453493
H            1.07850318089429       -1.28084458564034       -1.03791113240892
H            2.66099415998104        1.28803818387952        1.60030497660133
H           -2.12040429393470        0.62899885872255       -0.62112905493403
H           -1.00630098780124       -0.01153002759386       -1.84044695368195
H            0.39202950334953        3.14581915238488        0.15639600097620
H           -1.64197819167985       -3.21605717638127       -1.26100833979352
H           -0.29462808129256        0.68881568033915        1.68650408021642

 Bond Distances (Angstroems)
 ---------------------------
C1-C2=1.5082         C1-C5=1.5537         C1-H14=1.0918        C1-H15=1.0892        C2-C1=1.5082         C2-O3=1.2004         
C2-O4=1.3388         O3-C2=1.2004         O4-C2=1.3388         O4-H16=0.9700        C5-C1=1.5537         C5-C6=1.5473         
C5-C10=1.5408        C5-O13=1.3914        C6-C5=1.5473         C6-C7=1.5112         C6-H17=1.0953        C6-H18=1.0902        
C7-C6=1.5112         C7-O8=1.1966         C7-O9=1.3456         O8-C7=1.1966         O9-C7=1.3456         O9-H19=0.9710        
C10-C5=1.5408        C10-O11=1.1931       C10-O12=1.3399       O11-C10=1.1931       O12-C10=1.3399       O12-H20=0.9709       
O13-C5=1.3914        O13-H21=0.9665       H14-C1=1.0918        H15-C1=1.0892        H16-O4=0.9700        H17-C6=1.0953        
H18-C6=1.0902        H19-O9=0.9710        H20-O12=0.9709       H21-O13=0.9665       
 C  H  Rav=1.0916 sigma=0.0023  Rmin=1.0892  Rmax=1.0953     4
 C  C  Rav=1.5322 sigma=0.0189  Rmin=1.5082  Rmax=1.5537     5
 O  H  Rav=0.9696 sigma=0.0019  Rmin=0.9665  Rmax=0.9710     4
 O  C  Rav=1.2866 sigma=0.0796  Rmin=1.1931  Rmax=1.3914     7

 selected bond angles (degree)
 --------------------
C5-C1-C2=113.04                H14-C1-C2=107.95               H14-C1-C5=107.40               H15-C1-C2=108.85               
H15-C1-C5=109.17               H15-C1-H14=110.41              O3-C2-C1=125.49                O4-C2-C1=111.87                
O4-C2-O3=122.63                H16-O4-C2=110.92               C6-C5-C1=111.83                C10-C5-C1=106.86               
C10-C5-C6=106.24               O13-C5-C1=112.62               O13-C5-C6=112.82               O13-C5-C10=105.88              
C7-C6-C5=117.09                H17-C6-C5=107.33               H17-C6-C7=106.14               H18-C6-C5=110.08               
H18-C6-C7=107.55               H18-C6-H17=108.30              O8-C7-C6=124.02                O9-C7-C6=113.76                
O9-C7-O8=122.14                H19-O9-C7=109.40               O11-C10-C5=125.47              O12-C10-C5=111.44              
O12-C10-O11=123.09             

 selected dihedral angles (degree)
 ---------------------------------
O3-C2-C1-C5=253.86            O3-C2-C1-H14=135.21           O3-C2-C1-H15= 15.35           O4-C2-C1-C5= 74.48            
O4-C2-C1-H14=315.84           O4-C2-C1-H15=195.97           H16-O4-C2-C1=178.59           H16-O4-C2-O3=359.19           
C6-C5-C1-C2= 66.77            C6-C5-C1-H14=185.73           C6-C5-C1-H15=305.46           C10-C5-C1-C2=182.63           
C10-C5-C1-H14=301.59          C10-C5-C1-H15= 61.33          O13-C5-C1-C2=298.48           O13-C5-C1-H14= 57.44          
O13-C5-C1-H15=177.18          C7-C6-C5-C1=298.41            C7-C6-C5-C10=182.17           C7-C6-C5-O13= 66.59           
H17-C6-C5-C1=179.28           H17-C6-C5-C10= 63.04          H17-C6-C5-O13=307.46          H18-C6-C5-C1= 61.62           
H18-C6-C5-C10=305.38          H18-C6-C5-O13=189.80          O8-C7-C6-C5=148.91            O8-C7-C6-H17=268.67           
O8-C7-C6-H18= 24.42           O9-C7-C6-C5=325.69            O9-C7-C6-H17= 85.45           O9-C7-C6-H18=201.20           
H19-O9-C7-C6=181.91           H19-O9-C7-O8=358.76           O11-C10-C5-C1=124.47          O11-C10-C5-C6=244.01          
O11-C10-C5-O13=  4.20         O12-C10-C5-C1=303.90          O12-C10-C5-C6= 63.44          O12-C10-C5-O13=183.63         
           -------------------------------------------------
          |                Final Singlepoint                |
           -------------------------------------------------

          ...................................................
          :                      SETUP                      :
          :.................................................:
          :  # basis functions                  60          :
          :  # atomic orbitals                  60          :
          :  # shells                           34          :
          :  # electrons                        74          :
          :  max. iterations                   250          :
          :  Hamiltonian                  GFN2-xTB          :
          :  restarted?                      false          :
          :  GBSA solvation                  false          :
          :  PC potential                    false          :
          :  electronic temp.          300.0000000     K    :
          :  accuracy                    1.0000000          :
          :  -> integral cutoff          0.2500000E+02      :
          :  -> integral neglect         0.1000000E-07      :
          :  -> SCF convergence          0.1000000E-05 Eh   :
          :  -> wf. convergence          0.1000000E-03 e    :
          :  Broyden damping             0.4000000          :
          ...................................................

 iter      E             dE          RMSdq      gap      omega  full diag
   1    -45.7790331 -0.457790E+02  0.475E-05    4.46       0.0  T
   2    -45.7790331 -0.612488E-11  0.296E-05    4.46     737.4  T
   3    -45.7790331 -0.767386E-12  0.152E-05    4.46    1433.0  T

   *** convergence criteria satisfied after 3 iterations ***

         #    Occupation            Energy/Eh            Energy/eV
      -------------------------------------------------------------
         1        2.0000           -0.7672361             -20.8776
       ...           ...                  ...                  ...
        31        2.0000           -0.4963012             -13.5050
        32        2.0000           -0.4870166             -13.2524
        33        2.0000           -0.4801191             -13.0647
        34        2.0000           -0.4536618             -12.3448
        35        2.0000           -0.4460878             -12.1387
        36        2.0000           -0.4360375             -11.8652
        37        2.0000           -0.4256516             -11.5826 (HOMO)
        38                         -0.2618224              -7.1245 (LUMO)
        39                         -0.2536308              -6.9016
        40                         -0.2462951              -6.7020
        41                          0.0006160               0.0168
        42                          0.0264789               0.7205
       ...                                ...                  ...
        60                          0.6492475              17.6669
      -------------------------------------------------------------
                  HL-Gap            0.1638293 Eh            4.4580 eV
             Fermi-level           -0.3437370 Eh           -9.3536 eV

 SCC (total)                   0 d,  0 h,  0 min,  0.003 sec
 SCC setup                      ...        0 min,  0.000 sec (  7.867%)
 Dispersion                     ...        0 min,  0.000 sec (  1.381%)
 classical contributions        ...        0 min,  0.000 sec (  0.433%)
 integral evaluation            ...        0 min,  0.000 sec ( 13.920%)
 iterations                     ...        0 min,  0.001 sec ( 34.380%)
 molecular gradient             ...        0 min,  0.001 sec ( 40.378%)
 printout                       ...        0 min,  0.000 sec (  1.436%)

         :::::::::::::::::::::::::::::::::::::::::::::::::::::
         ::                     SUMMARY                     ::
         :::::::::::::::::::::::::::::::::::::::::::::::::::::
         :: total energy             -45.416852227867 Eh    ::
         :: gradient norm              0.000624552171 Eh/a0 ::
         :: HOMO-LUMO gap              4.458021259223 eV    ::
         ::.................................................::
         :: SCC energy               -45.779033050276 Eh    ::
         :: -> isotropic ES            0.160086020237 Eh    ::
         :: -> anisotropic ES          0.003232236384 Eh    ::
         :: -> anisotropic XC         -0.006940692737 Eh    ::
         :: -> dispersion             -0.018520565490 Eh    ::
         :: repulsion energy           0.362039425363 Eh    ::
         :: add. restraining           0.000000000000 Eh    ::
         :: total charge              -0.000000000000 e     ::
         :::::::::::::::::::::::::::::::::::::::::::::::::::::

           -------------------------------------------------
          |                Property Printout                |
           -------------------------------------------------

    * Orbital Energies and Occupations

         #    Occupation            Energy/Eh            Energy/eV
      -------------------------------------------------------------
         1        2.0000           -0.7672361             -20.8776
       ...           ...                  ...                  ...
        25        2.0000           -0.5326293             -14.4936
        26        2.0000           -0.5237782             -14.2527
        27        2.0000           -0.5151938             -14.0191
        28        2.0000           -0.5088540             -13.8466
        29        2.0000           -0.4995361             -13.5931
        30        2.0000           -0.4966475             -13.5145
        31        2.0000           -0.4963012             -13.5050
        32        2.0000           -0.4870166             -13.2524
        33        2.0000           -0.4801191             -13.0647
        34        2.0000           -0.4536618             -12.3448
        35        2.0000           -0.4460878             -12.1387
        36        2.0000           -0.4360375             -11.8652
        37        2.0000           -0.4256516             -11.5826 (HOMO)
        38                         -0.2618224              -7.1245 (LUMO)
        39                         -0.2536308              -6.9016
        40                         -0.2462951              -6.7020
        41                          0.0006160               0.0168
        42                          0.0264789               0.7205
        43                          0.0331460               0.9019
        44                          0.0357475               0.9727
        45                          0.0411945               1.1210
        46                          0.0815384               2.2188
        47                          0.1192781               3.2457
        48                          0.1435551               3.9063
       ...                                ...                  ...
        60                          0.6492475              17.6669
      -------------------------------------------------------------
                  HL-Gap            0.1638293 Eh            4.4580 eV
             Fermi-level           -0.3437370 Eh           -9.3536 eV

     #   Z          covCN         q      C6AA      α(0)
     1   6 C        3.805    -0.110    22.589     6.766
     2   6 C        2.688     0.364    20.822     7.468
     3   8 O        0.856    -0.403    21.744     6.252
     4   8 O        1.660    -0.369    20.266     6.077
     5   6 C        3.773     0.138    18.379     6.109
     6   6 C        3.806    -0.110    22.590     6.766
     7   6 C        2.686     0.365    20.803     7.464
     8   8 O        0.856    -0.382    21.333     6.192
     9   8 O        1.659    -0.388    20.612     6.129
    10   6 C        2.696     0.352    21.019     7.504
    11   8 O        0.856    -0.354    20.777     6.111
    12   8 O        1.659    -0.380    20.470     6.108
    13   8 O        1.658    -0.420    21.234     6.221
    14   1 H        0.924     0.087     1.907     2.160
    15   1 H        0.925     0.088     1.896     2.153
    16   1 H        0.804     0.331     0.634     1.251
    17   1 H        0.924     0.094     1.840     2.121
    18   1 H        0.924     0.092     1.856     2.130
    19   1 H        0.804     0.337     0.620     1.237
    20   1 H        0.804     0.341     0.610     1.227
    21   1 H        0.805     0.325     0.650     1.267

 Mol. C6AA /au·bohr⁶  :       4616.421991
 Mol. C8AA /au·bohr⁸  :     102912.182447
 Mol. α(0) /au        :         98.712208


Wiberg/Mayer (AO) data.
largest (>0.10) Wiberg bond orders for each atom

 ---------------------------------------------------------------------------
     #   Z sym  total        # sym  WBO       # sym  WBO       # sym  WBO
 ---------------------------------------------------------------------------
     1   6 C    3.990 --     2 C    0.978    15 H    0.967    14 H    0.958
                             5 C    0.935
     2   6 C    3.918 --     3 O    1.768     4 O    1.132     1 C    0.978
     3   8 O    2.045 --     2 C    1.768     4 O    0.174
     4   8 O    2.208 --     2 C    1.132    16 H    0.865     3 O    0.174
     5   6 C    3.968 --    13 O    1.024     6 C    0.953     1 C    0.935
                            10 C    0.918
     6   6 C    3.989 --     7 C    0.977    18 H    0.963     5 C    0.953
                            17 H    0.939
     7   6 C    3.918 --     8 O    1.792     9 O    1.111     6 C    0.977
     8   8 O    2.066 --     7 C    1.792     9 O    0.170
     9   8 O    2.189 --     7 C    1.111    19 H    0.860     8 O    0.170
    10   6 C    3.921 --    11 O    1.815    12 O    1.127     5 C    0.918
    11   8 O    2.091 --    10 C    1.815    12 O    0.179
    12   8 O    2.194 --    10 C    1.127    20 H    0.859    11 O    0.179
    13   8 O    1.993 --     5 C    1.024    21 H    0.863
    14   1 H    0.992 --     1 C    0.958
    15   1 H    0.992 --     1 C    0.967
    16   1 H    0.890 --     4 O    0.865
    17   1 H    0.991 --     6 C    0.939
    18   1 H    0.991 --     6 C    0.963
    19   1 H    0.887 --     9 O    0.860
    20   1 H    0.884 --    12 O    0.859
    21   1 H    0.894 --    13 O    0.863
 ---------------------------------------------------------------------------

Topologies differ in total number of bonds
Writing topology from bond orders to xtbtopo.mol

molecular dipole:
                 x           y           z       tot (Debye)
 q only:        0.256      -0.165       0.340
   full:        0.469       0.017       0.307       1.425
molecular quadrupole (traceless):
                xx          xy          yy          xz          yz          zz
 q only:       -2.008       0.275       8.185      12.562      17.157      -6.177
  q+dip:       -0.636       1.077      12.315      15.944      20.232     -11.679
   full:       -0.076       0.004      12.040      16.256      20.611     -11.964

           -------------------------------------------------
          |                Geometry Summary                 |
           -------------------------------------------------

      molecular mass/u    :      192.1237758
   center of mass at/Å    :       -0.0124686       0.0514019      -0.0603321
  moments of inertia/u·Å² :        0.4446370E+03   0.7861089E+03   0.9219217E+03
rotational constants/cm⁻¹ :        0.3791325E-01   0.2144440E-01   0.1828532E-01

 * 15 selected distances

     #   Z          #   Z                                           value/Å
     2   6 C        3   8 O                                       1.2004104
     2   6 C        4   8 O                                       1.3387762
     7   6 C        8   8 O                                       1.1965936
     7   6 C        9   8 O                                       1.3456344
    10   6 C       11   8 O                                       1.1931379
    10   6 C       12   8 O                                       1.3399351
     5   6 C       13   8 O                                       1.3914326 (max)
     1   6 C       14   1 H                                       1.0918101
     1   6 C       15   1 H                                       1.0891534
     4   8 O       16   1 H                                       0.9700020
     6   6 C       17   1 H                                       1.0953051
     6   6 C       18   1 H                                       1.0902264
     9   8 O       19   1 H                                       0.9710262
    12   8 O       20   1 H                                       0.9709461
    13   8 O       21   1 H                                       0.9664795 (min)

 * 3 distinct bonds (by element types)

   Z      Z             #   av. dist./Å        max./Å        min./Å
   1 H    6 C           4     1.0916237     1.0953051     1.0891534
   1 H    8 O           4     0.9696135     0.9710262     0.9664795
   6 C    8 O           7     1.2865600     1.3914326     1.1931379


optimized geometry written to: xtbopt.xyz


           -------------------------------------------------
          | TOTAL ENERGY              -45.416852227867 Eh   |
          | GRADIENT NORM               0.000624552171 Eh/α |
          | HOMO-LUMO GAP               4.458021259223 eV   |
           -------------------------------------------------
########################################################################
[WARNING] Runtime exception occurred
-2- restart_readRestart: Dimension missmatch in restart file.
-1- restart_readRestart: Number of electron missmatch in restart file.
########################################################################

------------------------------------------------------------------------
 * finished run on 2024/09/23 at 19:15:08.488     
------------------------------------------------------------------------
 total:
 * wall-time:     0 d,  0 h,  0 min,  0.399 sec
 *  cpu-time:     0 d,  0 h,  0 min,  2.939 sec
 * ratio c/w:     7.366 speedup
 SCF:
 * wall-time:     0 d,  0 h,  0 min,  0.020 sec
 *  cpu-time:     0 d,  0 h,  0 min,  0.126 sec
 * ratio c/w:     6.332 speedup
 ANC optimizer:
 * wall-time:     0 d,  0 h,  0 min,  0.202 sec
 *  cpu-time:     0 d,  0 h,  0 min,  1.550 sec
 * ratio c/w:     7.673 speedup

