      -----------------------------------------------------------      
     |                   =====================                   |     
     |                           x T B                           |     
     |                   =====================                   |     
     |                         S. Grimme                         |     
     |          Mulliken Center for Theoretical Chemistry        |     
     |                    University of Bonn                     |     
      -----------------------------------------------------------      

   * xtb version 6.6.0 (conda-forge) compiled by 'runner@Mac-1676020848589.local' on 2023-02-10

   xtb is free software: you can redistribute it and/or modify it under
   the terms of the GNU Lesser General Public License as published by
   the Free Software Foundation, either version 3 of the License, or
   (at your option) any later version.
   
   xtb is distributed in the hope that it will be useful,
   but WITHOUT ANY WARRANTY; without even the implied warranty of
   MERCHANTABILITY or FITNESS FOR A PARTICULAR PURPOSE.  See the
   GNU Lesser General Public License for more details.
   
   Cite this work as:
   * C. Bannwarth, E. Caldeweyher, S. Ehlert, A. Hansen, P. Pracht,
     J. Seibert, S. Spicher, S. Grimme, WIREs Comput. Mol. Sci., 2020, 11,
     e01493. DOI: 10.1002/wcms.1493
   
   for GFN2-xTB:
   * C. Bannwarth, S. Ehlert and S. Grimme., J. Chem. Theory Comput., 2019,
     15, 1652-1671. DOI: 10.1021/acs.jctc.8b01176
   for GFN1-xTB:
   * S. Grimme, C. Bannwarth, P. Shushkov, J. Chem. Theory Comput., 2017,
     13, 1989-2009. DOI: 10.1021/acs.jctc.7b00118
   for GFN0-xTB:
   * P. Pracht, E. Caldeweyher, S. Ehlert, S. Grimme, ChemRxiv, 2019, preprint.
     DOI: 10.26434/chemrxiv.8326202.v1
   for GFN-FF:
   * S. Spicher and S. Grimme, Angew. Chem. Int. Ed., 2020, 59, 15665-15673.
     DOI: 10.1002/anie.202004239
   
   for ALPB and GBSA implicit solvation:
   * S. Ehlert, M. Stahn, S. Spicher, S. Grimme, J. Chem. Theory Comput.,
     2021, 17, 4250-4261. DOI: 10.1021/acs.jctc.1c00471
   
   for DFT-D4:
   * E. Caldeweyher, C. Bannwarth and S. Grimme, J. Chem. Phys., 2017,
     147, 034112. DOI: 10.1063/1.4993215
   * E. Caldeweyher, S. Ehlert, A. Hansen, H. Neugebauer, S. Spicher,
     C. Bannwarth and S. Grimme, J. Chem. Phys., 2019, 150, 154122.
     DOI: 10.1063/1.5090222
   * E. Caldeweyher, J.-M. Mewes, S. Ehlert and S. Grimme, Phys. Chem. Chem. Phys.
     2020, 22, 8499-8512. DOI: 10.1039/D0CP00502A
   
   for sTDA-xTB:
   * S. Grimme and C. Bannwarth, J. Chem. Phys., 2016, 145, 054103.
     DOI: 10.1063/1.4959605
   
   in the mass-spec context:
   * V. Asgeirsson, C. Bauer and S. Grimme, Chem. Sci., 2017, 8, 4879.
     DOI: 10.1039/c7sc00601b
   * J. Koopman and S. Grimme, ACS Omega 2019, 4, 12, 15120-15133.
     DOI: 10.1021/acsomega.9b02011
   
   for metadynamics refer to:
   * S. Grimme, J. Chem. Theory Comput., 2019, 155, 2847-2862
     DOI: 10.1021/acs.jctc.9b00143
   
   for SPH calculations refer to:
   * S. Spicher and S. Grimme, J. Chem. Theory Comput., 2021, 17, 1701-1714
     DOI: 10.1021/acs.jctc.0c01306
   
   with help from (in alphabetical order)
   P. Atkinson, C. Bannwarth, F. Bohle, G. Brandenburg, E. Caldeweyher
   M. Checinski, S. Dohm, S. Ehlert, S. Ehrlich, I. Gerasimov, C. Hölzer
   A. Katbashev, J. Koopman, C. Lavigne, S. Lehtola, F. März, M. Müller,
   F. Musil, H. Neugebauer, J. Pisarek, C. Plett, P. Pracht, F. Pultar,
   J. Seibert, P. Shushkov, S. Spicher, M. Stahn, M. Steiner, T. Strunk,
   J. Stückrath, T. Rose, and J. Unsleber
   
 * started run on 2024/09/06 at 21:29:37.452     

           -------------------------------------------------
          |                Calculation Setup                |
           -------------------------------------------------

          program call               : xtb Caffeine.xyz --opt --alpb water --gfn2
          coordinate file            : Caffeine.xyz
          omp threads                :                     8

   ID    Z sym.   atoms
    1    6 C      1, 3, 5-7, 10, 13, 14
    2    7 N      2, 4, 9, 12
    3    8 O      8, 11
    4    1 H      15-24

           -------------------------------------------------
          |                 G F N 2 - x T B                 |
           -------------------------------------------------

        Reference                      10.1021/acs.jctc.8b01176
      * Hamiltonian:
        H0-scaling (s, p, d)           1.850000    2.230000    2.230000
        zeta-weighting                 0.500000
      * Dispersion:
        s8                             2.700000
        a1                             0.520000
        a2                             5.000000
        s9                             5.000000
      * Repulsion:
        kExp                           1.500000    1.000000
        rExp                           1.000000
      * Coulomb:
        alpha                          2.000000
        third order                    shell-resolved
        anisotropic                    true
        a3                             3.000000
        a5                             4.000000
        cn-shift                       1.200000
        cn-exp                         4.000000
        max-rad                        5.000000

      * Solvation model:               ALPB
        Solvent                        water
        Parameter file                 internal GFN2-xTB/ALPB
        Dielectric constant                8.0200E+01
        Reference state                gsolv [1 M gas/solution]
        Free energy shift                  1.0808E-03 Eh       6.7819E-01 kcal/mol
        Temperature                        2.9815E+02 K
        Density                            1.0000E+00 kg/L
        Solvent mass                       1.8000E+01 g/mol
        Interaction kernel             P16
        Born radius scaling (c1)           1.4744E+00
        Born radii integrator          GBOBC
        Born offset                        0.0000E+00 a0       0.0000E+00 AA
        H-bond correction              true
        Ion screening                  false
        Surface tension                    1.0000E-05 Eh       1.5569E+01 dyn/cm
        Grid points                               230 per atom
q/qsh data taken from xtbrestart
CAMM data taken from xtbrestart

          ...................................................
          :                      SETUP                      :
          :.................................................:
          :  # basis functions                  66          :
          :  # atomic orbitals                  66          :
          :  # shells                           38          :
          :  # electrons                        74          :
          :  max. iterations                   250          :
          :  Hamiltonian                  GFN2-xTB          :
          :  restarted?                       true          :
          :  GBSA solvation                   true          :
          :  PC potential                    false          :
          :  electronic temp.          300.0000000     K    :
          :  accuracy                    1.0000000          :
          :  -> integral cutoff          0.2500000E+02      :
          :  -> integral neglect         0.1000000E-07      :
          :  -> SCF convergence          0.1000000E-05 Eh   :
          :  -> wf. convergence          0.1000000E-03 e    :
          :  Broyden damping             0.4000000          :
          ...................................................

 iter      E             dE          RMSdq      gap      omega  full diag
   1    -42.6097705 -0.426098E+02  0.314E+00    3.34       0.0  T
   2    -42.6251953 -0.154248E-01  0.194E+00    3.34       1.0  T
   3    -42.6237954  0.139989E-02  0.681E-01    3.33       1.0  T
   4    -42.6275848 -0.378945E-02  0.201E-01    3.33       1.0  T
   5    -42.6280084 -0.423595E-03  0.992E-02    3.33       1.0  T
   6    -42.6280179 -0.948547E-05  0.310E-02    3.33       1.0  T
   7    -42.6280238 -0.586494E-05  0.967E-03    3.33       2.1  T
   8    -42.6280239 -0.151968E-06  0.383E-03    3.33       5.3  T
   9    -42.6280240 -0.238468E-07  0.106E-03    3.33      19.3  T
  10    -42.6280240 -0.561755E-08  0.470E-04    3.33      43.5  T
  11    -42.6280240 -0.651603E-09  0.237E-04    3.33      86.0  T

   *** convergence criteria satisfied after 11 iterations ***

         #    Occupation            Energy/Eh            Energy/eV
      -------------------------------------------------------------
         1        2.0000           -0.7273159             -19.7913
       ...           ...                  ...                  ...
        31        2.0000           -0.4582379             -12.4693
        32        2.0000           -0.4367381             -11.8842
        33        2.0000           -0.4344973             -11.8233
        34        2.0000           -0.4288157             -11.6687
        35        2.0000           -0.4209422             -11.4544
        36        2.0000           -0.4068654             -11.0714
        37        2.0000           -0.3958572             -10.7718 (HOMO)
        38                         -0.2735752              -7.4444 (LUMO)
        39                         -0.2378037              -6.4710
        40                         -0.2165371              -5.8923
        41                         -0.1211619              -3.2970
        42                         -0.0697801              -1.8988
       ...                                ...                  ...
        66                          0.6618254              18.0092
      -------------------------------------------------------------
                  HL-Gap            0.1222820 Eh            3.3275 eV
             Fermi-level           -0.3347162 Eh           -9.1081 eV

 SCC (total)                   0 d,  0 h,  0 min,  0.134 sec
 SCC setup                      ...        0 min,  0.017 sec ( 12.406%)
 Dispersion                     ...        0 min,  0.006 sec (  4.441%)
 classical contributions        ...        0 min,  0.000 sec (  0.057%)
 integral evaluation            ...        0 min,  0.006 sec (  4.320%)
 iterations                     ...        0 min,  0.094 sec ( 69.992%)
 molecular gradient             ...        0 min,  0.006 sec (  4.543%)
 printout                       ...        0 min,  0.006 sec (  4.208%)

         :::::::::::::::::::::::::::::::::::::::::::::::::::::
         ::                     SUMMARY                     ::
         :::::::::::::::::::::::::::::::::::::::::::::::::::::
         :: total energy             -42.152306949371 Eh    ::
         :: total w/o Gsasa/hb       -42.147931975185 Eh    ::
         :: gradient norm              0.136908083772 Eh/a0 ::
         :: HOMO-LUMO gap              3.327462181709 eV    ::
         ::.................................................::
         :: SCC energy               -42.628023967713 Eh    ::
         :: -> isotropic ES            0.117200586933 Eh    ::
         :: -> anisotropic ES          0.000898041310 Eh    ::
         :: -> anisotropic XC          0.014826505672 Eh    ::
         :: -> dispersion             -0.023083027116 Eh    ::
         :: -> Gsolv                  -0.024699939992 Eh    ::
         ::    -> Gelec               -0.020324965806 Eh    ::
         ::    -> Gsasa               -0.000891812231 Eh    ::
         ::    -> Ghb                 -0.004563921654 Eh    ::
         ::    -> Gshift               0.001080759698 Eh    ::
         :: repulsion energy           0.475626017405 Eh    ::
         :: add. restraining           0.000000000000 Eh    ::
         :: total charge              -0.000000000000 e     ::
         :::::::::::::::::::::::::::::::::::::::::::::::::::::

      ----------------------------------------------------------- 
     |                   =====================                   |
     |                        A N C O P T                        |
     |                   =====================                   |
     |               Approximate Normal Coordinate               |
     |                Rational Function Optimizer                |
      ----------------------------------------------------------- 

          ...................................................
          :                      SETUP                      :
          :.................................................:
          :   optimization level            normal          :
          :   max. optcycles                   200          :
          :   ANC micro-cycles                  20          :
          :   degrees of freedom                66          :
          :.................................................:
          :   RF solver                   davidson          :
          :   write xtbopt.log                true          :
          :   linear?                        false          :
          :   energy convergence         0.5000000E-05 Eh   :
          :   grad. convergence          0.1000000E-02 Eh/α :
          :   maxmium RF displ.          1.0000000          :
          :   Hlow (freq-cutoff)         0.1000000E-01      :
          :   Hmax (freq-cutoff)         5.0000000          :
          :   S6 in model hess.         20.0000000          :
          ...................................................

generating ANC from model Hessian ...
Using Lindh-Hessian (1995)
 Shifting diagonal of input Hessian by    6.8458187777964627E-003
 Lowest  eigenvalues of input Hessian
    0.000000    0.000000    0.000000    0.000000    0.000000    0.000000
    0.010000    0.011181    0.012348    0.015402    0.015625    0.017498
    0.018458    0.019251    0.026271    0.029496    0.040207    0.046689
 Highest eigenvalues
    2.057958    2.073903    2.092749    2.185954    2.434196    2.458696


........................................................................
.............................. CYCLE    1 ..............................
........................................................................

 iter      E             dE          RMSdq      gap      omega  full diag
   1    -42.6280240 -0.426280E+02  0.741E-05    3.33       0.0  T
   2    -42.6280240 -0.177494E-10  0.467E-05    3.33     437.5  T
   3    -42.6280240 -0.331113E-11  0.290E-05    3.33     702.9  T
     SCC iter.                  ...        0 min,  0.006 sec
     gradient                   ...        0 min,  0.004 sec
 * total energy  :   -42.1523069 Eh     change       -0.2507008E-09 Eh
   gradient norm :     0.1369101 Eh/α   predicted     0.0000000E+00 (-100.00%)
   displ. norm   :     0.3127678 α      lambda       -0.2156534E-01
   maximum displ.:     0.1911143 α      in ANC's #13, #21, #14, ...

........................................................................
.............................. CYCLE    2 ..............................
........................................................................

 iter      E             dE          RMSdq      gap      omega  full diag
   1    -42.6633420 -0.426633E+02  0.318E-01    3.38       0.0  T
   2    -42.6638984 -0.556410E-03  0.186E-01    3.35       1.0  T
   3    -42.6639426 -0.441875E-04  0.912E-02    3.36       1.0  T
   4    -42.6639604 -0.178450E-04  0.271E-02    3.36       1.0  T
   5    -42.6639681 -0.771509E-05  0.707E-03    3.36       2.9  T
   6    -42.6639684 -0.216651E-06  0.360E-03    3.36       5.7  T
   7    -42.6639684 -0.300487E-07  0.123E-03    3.36      16.6  T
   8    -42.6639684 -0.741422E-08  0.413E-04    3.36      49.4  T
   9    -42.6639684 -0.134205E-08  0.205E-04    3.36      99.5  T
     SCC iter.                  ...        0 min,  0.021 sec
     gradient                   ...        0 min,  0.005 sec
 * total energy  :   -42.1672637 Eh     change       -0.1495671E-01 Eh
   gradient norm :     0.0590810 Eh/α   predicted    -0.1184698E-01 ( -20.79%)
   displ. norm   :     0.2348791 α      lambda       -0.5996550E-02
   maximum displ.:     0.1374919 α      in ANC's #13, #5, #21, ...

........................................................................
.............................. CYCLE    3 ..............................
........................................................................

 iter      E             dE          RMSdq      gap      omega  full diag
   1    -42.6819116 -0.426819E+02  0.240E-01    3.40       0.0  T
   2    -42.6822037 -0.292146E-03  0.131E-01    3.38       1.0  T
   3    -42.6822271 -0.233902E-04  0.663E-02    3.39       1.0  T
   4    -42.6822389 -0.117924E-04  0.203E-02    3.39       1.0  T
   5    -42.6822434 -0.449351E-05  0.473E-03    3.39       4.3  T
   6    -42.6822435 -0.101326E-06  0.246E-03    3.39       8.3  T
   7    -42.6822435 -0.179641E-07  0.772E-04    3.39      26.4  T
   8    -42.6822435 -0.313764E-08  0.260E-04    3.39      78.6  T
     SCC iter.                  ...        0 min,  0.032 sec
     gradient                   ...        0 min,  0.011 sec
 * total energy  :   -42.1706323 Eh     change       -0.3368675E-02 Eh
   gradient norm :     0.0149335 Eh/α   predicted    -0.3163987E-02 (  -6.08%)
   displ. norm   :     0.1096272 α      lambda       -0.5066372E-03
   maximum displ.:     0.0727536 α      in ANC's #5, #2, #13, ...

........................................................................
.............................. CYCLE    4 ..............................
........................................................................

 iter      E             dE          RMSdq      gap      omega  full diag
   1    -42.6815663 -0.426816E+02  0.679E-02    3.40       0.0  T
   2    -42.6815779 -0.115502E-04  0.377E-02    3.39       1.0  T
   3    -42.6815775  0.325590E-06  0.182E-02    3.39       1.1  T
   4    -42.6815798 -0.223892E-05  0.426E-03    3.39       4.8  T
   5    -42.6815800 -0.202631E-06  0.117E-03    3.39      17.5  T
   6    -42.6815800 -0.505985E-08  0.615E-04    3.39      33.2  T
   7    -42.6815800 -0.980535E-09  0.205E-04    3.39      99.5  T
     SCC iter.                  ...        0 min,  0.039 sec
     gradient                   ...        0 min,  0.007 sec
 * total energy  :   -42.1709819 Eh     change       -0.3496116E-03 Eh
   gradient norm :     0.0074075 Eh/α   predicted    -0.2563690E-03 ( -26.67%)
   displ. norm   :     0.0982944 α      lambda       -0.1970724E-03
   maximum displ.:     0.0704296 α      in ANC's #5, #2, #4, ...

........................................................................
.............................. CYCLE    5 ..............................
........................................................................

 iter      E             dE          RMSdq      gap      omega  full diag
   1    -42.6806484 -0.426806E+02  0.441E-02    3.40       0.0  T
   2    -42.6806536 -0.518897E-05  0.248E-02    3.40       1.0  T
   3    -42.6806535  0.107897E-06  0.114E-02    3.40       1.8  T
   4    -42.6806542 -0.705862E-06  0.286E-03    3.40       7.1  T
   5    -42.6806543 -0.103666E-06  0.801E-04    3.40      25.5  T
   6    -42.6806543 -0.288409E-08  0.405E-04    3.40      50.3  T
     SCC iter.                  ...        0 min,  0.020 sec
     gradient                   ...        0 min,  0.007 sec
 * total energy  :   -42.1710956 Eh     change       -0.1136417E-03 Eh
   gradient norm :     0.0032471 Eh/α   predicted    -0.9949019E-04 ( -12.45%)
   displ. norm   :     0.0370147 α      lambda       -0.2402155E-04
   maximum displ.:     0.0229428 α      in ANC's #2, #5, #1, ...

........................................................................
.............................. CYCLE    6 ..............................
........................................................................

 iter      E             dE          RMSdq      gap      omega  full diag
   1    -42.6806851 -0.426807E+02  0.126E-02    3.40       0.0  T
   2    -42.6806853 -0.208341E-06  0.739E-03    3.40       2.8  T
   3    -42.6806853  0.743249E-09  0.173E-03    3.40      11.8  T
   4    -42.6806853 -0.187636E-07  0.450E-04    3.40      45.4  T
   5    -42.6806853 -0.215099E-08  0.204E-04    3.40     100.0  T
     SCC iter.                  ...        0 min,  0.022 sec
     gradient                   ...        0 min,  0.011 sec
 * total energy  :   -42.1711133 Eh     change       -0.1773196E-04 Eh
   gradient norm :     0.0021159 Eh/α   predicted    -0.1202827E-04 ( -32.17%)
   displ. norm   :     0.0461990 α      lambda       -0.1939792E-04
   maximum displ.:     0.0291978 α      in ANC's #2, #5, #1, ...

........................................................................
.............................. CYCLE    7 ..............................
........................................................................

 iter      E             dE          RMSdq      gap      omega  full diag
   1    -42.6809053 -0.426809E+02  0.168E-02    3.40       0.0  T
   2    -42.6809054 -0.122703E-06  0.984E-03    3.40       2.1  T
   3    -42.6809054  0.314532E-07  0.187E-03    3.40      10.9  T
   4    -42.6809055 -0.593805E-07  0.555E-04    3.40      36.8  T
   5    -42.6809055 -0.231930E-08  0.269E-04    3.40      76.0  T
     SCC iter.                  ...        0 min,  0.024 sec
     gradient                   ...        0 min,  0.007 sec
 * total energy  :   -42.1711257 Eh     change       -0.1235294E-04 Eh
   gradient norm :     0.0012584 Eh/α   predicted    -0.9720680E-05 ( -21.31%)
   displ. norm   :     0.0414228 α      lambda       -0.5848535E-05
   maximum displ.:     0.0250506 α      in ANC's #2, #8, #1, ...

........................................................................
.............................. CYCLE    8 ..............................
........................................................................

 iter      E             dE          RMSdq      gap      omega  full diag
   1    -42.6810568 -0.426811E+02  0.150E-02    3.40       0.0  T
   2    -42.6810569 -0.592498E-07  0.874E-03    3.40       2.3  T
   3    -42.6810569  0.182296E-07  0.150E-03    3.40      13.6  T
   4    -42.6810569 -0.363400E-07  0.378E-04    3.40      53.9  T
   5    -42.6810569 -0.492356E-09  0.195E-04    3.40     104.5  T
     SCC iter.                  ...        0 min,  0.014 sec
     gradient                   ...        0 min,  0.006 sec
 * total energy  :   -42.1711312 Eh     change       -0.5495045E-05 Eh
   gradient norm :     0.0012281 Eh/α   predicted    -0.2949649E-05 ( -46.32%)
   displ. norm   :     0.0329287 α      lambda       -0.3690985E-05
   maximum displ.:     0.0155664 α      in ANC's #2, #8, #3, ...

........................................................................
.............................. CYCLE    9 ..............................
........................................................................

 iter      E             dE          RMSdq      gap      omega  full diag
   1    -42.6810536 -0.426811E+02  0.959E-03    3.39       0.0  T
   2    -42.6810537 -0.486643E-07  0.562E-03    3.39       3.6  T
   3    -42.6810537  0.733266E-09  0.860E-04    3.40      23.7  T
   4    -42.6810537 -0.649125E-08  0.277E-04    3.39      73.8  T
     SCC iter.                  ...        0 min,  0.013 sec
     gradient                   ...        0 min,  0.007 sec
 * total energy  :   -42.1711357 Eh     change       -0.4505873E-05 Eh
   gradient norm :     0.0008773 Eh/α   predicted    -0.1849706E-05 ( -58.95%)
   displ. norm   :     0.0997863 α      lambda       -0.8708867E-05
   maximum displ.:     0.0496653 α      in ANC's #3, #8, #4, ...

   *** GEOMETRY OPTIMIZATION CONVERGED AFTER 9 ITERATIONS ***

------------------------------------------------------------------------
 total energy gain   :        -0.0188287 Eh      -11.8152 kcal/mol
 total RMSD          :         0.1501598 a0        0.0795 Å
 total power (kW/mol):        -5.4927576 (step) -138.2839 (real)
------------------------------------------------------------------------

 ANCopt (total)                0 d,  0 h,  0 min,  0.358 sec
 optimizer setup                ...        0 min,  0.004 sec (  1.108%)
 model hessian                  ...        0 min,  0.013 sec (  3.555%)
 ANC generation                 ...        0 min,  0.004 sec (  1.086%)
 coordinate transformation      ...        0 min,  0.000 sec (  0.040%)
 single point calculation       ...        0 min,  0.298 sec ( 83.429%)
 optimization log               ...        0 min,  0.005 sec (  1.429%)
 hessian update                 ...        0 min,  0.002 sec (  0.627%)
 rational function              ...        0 min,  0.026 sec (  7.349%)

================
 final structure:
================
24
 xtb: 6.6.0 (conda-forge)
C            3.28429617061034        0.61291281664103       -0.20595818416507
N            2.15489021837682       -0.27436033833896       -0.21579760146927
C            2.15717747816742       -1.60552170322454       -0.37073547217414
N            0.95392776709642       -2.14856746877056       -0.33262645782559
C            0.11963937607189       -1.10530555351367       -0.14118821108231
C            0.83632208978382        0.08508811113408       -0.06178023920723
C            0.19884120038902        1.34242609425888        0.14325444698352
O            0.74183821772861        2.43903708446795        0.22815016342714
N           -1.18551208568747        1.20824928265615        0.25154695674904
C           -1.91981502422422        0.03445511368252        0.16449982560257
O           -3.13851653753887        0.04578411960693        0.26628355475520
N           -1.23473662724120       -1.13527598242401       -0.02604726810945
C           -1.95916392972137       -2.38791993315103       -0.12782085090757
C           -1.95031833051807        2.42899672851605        0.46460406344938
H            4.19292449209861        0.03203136669124       -0.33701795082824
H            3.18836958815380        1.34422946589211       -1.00852545969373
H            3.31925832025655        1.15541195092223        0.73868661256310
H            3.05077418255968       -2.17863979160906       -0.51287530133859
H           -1.27186038535311       -3.18921614379538        0.12536299447101
H           -2.80429624341490       -2.35904726323240        0.55686892840633
H           -2.33083411508933       -2.52499658316112       -1.14295084817877
H           -2.81593920022896        2.19736661801983        1.08022439278635
H           -2.28671132036542        2.83234948428059       -0.49045616293083
H           -1.30045530191009        3.15061252445115        0.95419806871717

 Bond Distances (Angstroems)
 ---------------------------
C1-N2=1.4363         C1-H15=1.0864        C1-H16=1.0900        C1-H17=1.0899        N2-C1=1.4363         N2-C3=1.3401         
N2-C6=1.3753         C3-N2=1.3401         C3-N4=1.3207         C3-H18=1.0711        N4-C3=1.3207         N4-C5=1.3495         
C5-N4=1.3495         C5-C6=1.3918         C5-N12=1.3596        C6-N2=1.3753         C6-C5=1.3918         C6-C7=1.4245         
C7-C6=1.4245         C7-O8=1.2266         C7-N9=1.3951         O8-C7=1.2266         N9-C7=1.3951         N9-C10=1.3873        
N9-C14=1.4562        C10-N9=1.3873        C10-O11=1.2230       C10-N12=1.3689       O11-C10=1.2230       N12-C5=1.3596        
N12-C10=1.3689       N12-C13=1.4506       C13-N12=1.4506       C13-H19=1.0856       C13-H20=1.0881       C13-H21=1.0897       
C14-N9=1.4562        C14-H22=1.0872       C14-H23=1.0900       C14-H24=1.0875       H15-C1=1.0864        H16-C1=1.0900        
H17-C1=1.0899        H18-C3=1.0711        H19-C13=1.0856       H20-C13=1.0881       H21-C13=1.0897       H22-C14=1.0872       
H23-C14=1.0900       H24-C14=1.0875       
 C  H  Rav=1.0865 sigma=0.0054  Rmin=1.0711  Rmax=1.0900    10
 C  C  Rav=1.4081 sigma=0.0164  Rmin=1.3918  Rmax=1.4245     2
 N  C  Rav=1.3854 sigma=0.0432  Rmin=1.3207  Rmax=1.4562    11
 O  C  Rav=1.2248 sigma=0.0018  Rmin=1.2230  Rmax=1.2266     2

 selected bond angles (degree)
 --------------------
H15-C1-N2=109.06               H16-C1-N2=109.89               H16-C1-H15=110.09              H17-C1-N2=109.79               
H17-C1-H15=110.11              H17-C1-H16=107.88              C3-N2-C1=127.81                C6-N2-C1=126.28                
C6-N2-C3=105.91                N4-C3-N2=113.80                H18-C3-N2=123.25               H18-C3-N4=122.95               
C5-N4-C3=104.45                C6-C5-N4=110.55                N12-C5-N4=127.65               N12-C5-C6=121.80               
C5-C6-N2=105.29                C7-C6-N2=132.52                C7-C6-C5=122.19                O8-C7-C6=126.94                
N9-C7-C6=111.74                N9-C7-O8=121.33                C10-N9-C7=127.00               C14-N9-C7=116.87               
C14-N9-C10=116.13              O11-C10-N9=120.96              N12-C10-N9=117.83              N12-C10-O11=121.21             

 selected dihedral angles (degree)
 ---------------------------------
C3-N2-C1-H15=359.36           C3-N2-C1-H16=120.13           C3-N2-C1-H17=238.63           C6-N2-C1-H15=179.19           
C6-N2-C1-H16=299.96           C6-N2-C1-H17= 58.46           N4-C3-N2-C1=179.91            N4-C3-N2-C6=  0.06            
H18-C3-N2-C1=359.89           H18-C3-N2-C6=180.03           C5-N4-C3-N2=  0.00            C5-N4-C3-H18=180.02           
C6-C5-N4-C3=359.94            N12-C5-N4-C3=180.25           C5-C6-N2-C1=180.05            C5-C6-N2-C3=359.91            
C7-C6-N2-C1=359.89            C7-C6-N2-C3=179.75            N2-C6-C5-N4=  0.09            N2-C6-C5-N12=179.81           
C7-C6-C5-N4=180.23            C7-C6-C5-N12=359.95           O8-C7-C6-N2=  0.10            O8-C7-C6-C5=179.91            
N9-C7-C6-N2=180.36            N9-C7-C6-C5=  0.17            C10-N9-C7-C6=359.24           C10-N9-C7-O8=179.49           
C14-N9-C7-C6=179.96           C14-N9-C7-O8=  0.21           O11-C10-N9-C7=180.57          O11-C10-N9-C14=359.86         
N12-C10-N9-C7=  1.17          N12-C10-N9-C14=180.46         
           -------------------------------------------------
          |                Final Singlepoint                |
           -------------------------------------------------

          ...................................................
          :                      SETUP                      :
          :.................................................:
          :  # basis functions                  66          :
          :  # atomic orbitals                  66          :
          :  # shells                           38          :
          :  # electrons                        74          :
          :  max. iterations                   250          :
          :  Hamiltonian                  GFN2-xTB          :
          :  restarted?                      false          :
          :  GBSA solvation                   true          :
          :  PC potential                    false          :
          :  electronic temp.          300.0000000     K    :
          :  accuracy                    1.0000000          :
          :  -> integral cutoff          0.2500000E+02      :
          :  -> integral neglect         0.1000000E-07      :
          :  -> SCF convergence          0.1000000E-05 Eh   :
          :  -> wf. convergence          0.1000000E-03 e    :
          :  Broyden damping             0.4000000          :
          ...................................................

 iter      E             dE          RMSdq      gap      omega  full diag
   1    -42.6810537 -0.426811E+02  0.137E-04    3.39       0.0  T
   2    -42.6810537 -0.339071E-10  0.812E-05    3.39     251.3  T
   3    -42.6810537 -0.175504E-11  0.467E-05    3.39     437.2  T

   *** convergence criteria satisfied after 3 iterations ***

         #    Occupation            Energy/Eh            Energy/eV
      -------------------------------------------------------------
         1        2.0000           -0.7301620             -19.8687
       ...           ...                  ...                  ...
        31        2.0000           -0.4567149             -12.4278
        32        2.0000           -0.4395585             -11.9610
        33        2.0000           -0.4373578             -11.9011
        34        2.0000           -0.4256613             -11.5828
        35        2.0000           -0.4242624             -11.5448
        36        2.0000           -0.4081282             -11.1057
        37        2.0000           -0.3934141             -10.7053 (HOMO)
        38                         -0.2686508              -7.3104 (LUMO)
        39                         -0.2292214              -6.2374
        40                         -0.2064967              -5.6191
        41                         -0.1277516              -3.4763
        42                         -0.0474645              -1.2916
       ...                                ...                  ...
        66                          0.6680594              18.1788
      -------------------------------------------------------------
                  HL-Gap            0.1247633 Eh            3.3950 eV
             Fermi-level           -0.3310325 Eh           -9.0079 eV

 SCC (total)                   0 d,  0 h,  0 min,  0.025 sec
 SCC setup                      ...        0 min,  0.001 sec (  2.329%)
 Dispersion                     ...        0 min,  0.001 sec (  2.436%)
 classical contributions        ...        0 min,  0.000 sec (  0.292%)
 integral evaluation            ...        0 min,  0.002 sec (  9.186%)
 iterations                     ...        0 min,  0.014 sec ( 55.559%)
 molecular gradient             ...        0 min,  0.007 sec ( 28.984%)
 printout                       ...        0 min,  0.000 sec (  1.108%)

         :::::::::::::::::::::::::::::::::::::::::::::::::::::
         ::                     SUMMARY                     ::
         :::::::::::::::::::::::::::::::::::::::::::::::::::::
         :: total energy             -42.171135678021 Eh    ::
         :: total w/o Gsasa/hb       -42.167210582409 Eh    ::
         :: gradient norm              0.000878541532 Eh/a0 ::
         :: HOMO-LUMO gap              3.394982770944 eV    ::
         ::.................................................::
         :: SCC energy               -42.681053684169 Eh    ::
         :: -> isotropic ES            0.106846083336 Eh    ::
         :: -> anisotropic ES          0.000570690699 Eh    ::
         :: -> anisotropic XC          0.013715482671 Eh    ::
         :: -> dispersion             -0.023197166101 Eh    ::
         :: -> Gsolv                  -0.021777629028 Eh    ::
         ::    -> Gelec               -0.017852533416 Eh    ::
         ::    -> Gsasa               -0.000775406372 Eh    ::
         ::    -> Ghb                 -0.004230448938 Eh    ::
         ::    -> Gshift               0.001080759698 Eh    ::
         :: repulsion energy           0.509819037285 Eh    ::
         :: add. restraining           0.000000000000 Eh    ::
         :: total charge              -0.000000000000 e     ::
         :::::::::::::::::::::::::::::::::::::::::::::::::::::

           -------------------------------------------------
          |                Property Printout                |
           -------------------------------------------------

    * Orbital Energies and Occupations

         #    Occupation            Energy/Eh            Energy/eV
      -------------------------------------------------------------
         1        2.0000           -0.7301620             -19.8687
       ...           ...                  ...                  ...
        25        2.0000           -0.5034682             -13.7001
        26        2.0000           -0.5009114             -13.6305
        27        2.0000           -0.4967202             -13.5164
        28        2.0000           -0.4895293             -13.3208
        29        2.0000           -0.4771960             -12.9852
        30        2.0000           -0.4754588             -12.9379
        31        2.0000           -0.4567149             -12.4278
        32        2.0000           -0.4395585             -11.9610
        33        2.0000           -0.4373578             -11.9011
        34        2.0000           -0.4256613             -11.5828
        35        2.0000           -0.4242624             -11.5448
        36        2.0000           -0.4081282             -11.1057
        37        2.0000           -0.3934141             -10.7053 (HOMO)
        38                         -0.2686508              -7.3104 (LUMO)
        39                         -0.2292214              -6.2374
        40                         -0.2064967              -5.6191
        41                         -0.1277516              -3.4763
        42                         -0.0474645              -1.2916
        43                          0.0052573               0.1431
        44                          0.0187007               0.5089
        45                          0.0856747               2.3313
        46                          0.0963244               2.6211
        47                          0.1134823               3.0880
        48                          0.1451105               3.9487
       ...                                ...                  ...
        66                          0.6680594              18.1788
      -------------------------------------------------------------
                  HL-Gap            0.1247633 Eh            3.3950 eV
             Fermi-level           -0.3310325 Eh           -9.0079 eV

     #   Z          covCN         q      C6AA      α(0)
     1   6 C        3.690    -0.079    22.212     6.745
     2   7 N        2.834     0.019    20.925     6.794
     3   6 C        3.208     0.084    25.541     8.229
     4   7 N        1.894    -0.300    28.631     7.933
     5   6 C        3.195     0.124    24.797     8.119
     6   6 C        3.122    -0.040    28.794     8.788
     7   6 C        2.767     0.266    22.504     7.769
     8   8 O        0.858    -0.501    23.805     6.541
     9   7 N        2.749    -0.117    23.540     7.206
    10   6 C        2.732     0.318    21.598     7.609
    11   8 O        0.860    -0.510    24.010     6.570
    12   7 N        2.741    -0.067    22.530     7.050
    13   6 C        3.701    -0.071    22.022     6.711
    14   6 C        3.706    -0.054    21.700     6.659
    15   1 H        0.925     0.101     1.776     2.084
    16   1 H        0.925     0.094     1.843     2.123
    17   1 H        0.925     0.094     1.841     2.122
    18   1 H        0.926     0.091     1.871     2.139
    19   1 H        0.925     0.109     1.703     2.041
    20   1 H        0.925     0.093     1.850     2.127
    21   1 H        0.925     0.089     1.892     2.151
    22   1 H        0.925     0.088     1.901     2.156
    23   1 H        0.925     0.077     2.011     2.218
    24   1 H        0.925     0.092     1.858     2.132

 Mol. C6AA /au·bohr⁶  :       6658.171100
 Mol. C8AA /au·bohr⁸  :     152985.149124
 Mol. α(0) /au        :        124.013778


Wiberg/Mayer (AO) data.
largest (>0.10) Wiberg bond orders for each atom

 ---------------------------------------------------------------------------
     #   Z sym  total        # sym  WBO       # sym  WBO       # sym  WBO
 ---------------------------------------------------------------------------
     1   6 C    3.942 --     2 N    0.992    15 H    0.975    17 H    0.967
                            16 H    0.966
     2   7 N    3.667 --     3 C    1.325     6 C    1.156     1 C    0.992
                             4 N    0.102
     3   6 C    3.949 --     4 N    1.458     2 N    1.325    18 H    0.957
     4   7 N    3.000 --     3 C    1.458     5 C    1.298     2 N    0.102
     5   6 C    3.966 --     6 C    1.327     4 N    1.298    12 N    1.141
     6   6 C    3.943 --     5 C    1.327     2 N    1.156     7 C    1.135
     7   6 C    3.955 --     8 O    1.594     6 C    1.135     9 N    1.107
     8   8 O    1.941 --     7 C    1.594     9 N    0.139
     9   7 N    3.553 --    10 C    1.119     7 C    1.107    14 C    0.977
                             8 O    0.139    11 O    0.125
    10   6 C    3.960 --    11 O    1.574    12 N    1.160     9 N    1.119
    11   8 O    1.921 --    10 C    1.574    12 N    0.137     9 N    0.125
    12   7 N    3.581 --    10 C    1.160     5 C    1.141    13 C    0.971
                            11 O    0.137
    13   6 C    3.930 --    20 H    0.974    19 H    0.973    12 N    0.971
                            21 H    0.969
    14   6 C    3.940 --     9 N    0.977    22 H    0.974    24 H    0.973
                            23 H    0.972
    15   1 H    0.989 --     1 C    0.975
    16   1 H    0.991 --     1 C    0.966
    17   1 H    0.991 --     1 C    0.967
    18   1 H    0.991 --     3 C    0.957
    19   1 H    0.987 --    13 C    0.973
    20   1 H    0.990 --    13 C    0.974
    21   1 H    0.990 --    13 C    0.969
    22   1 H    0.992 --    14 C    0.974
    23   1 H    0.993 --    14 C    0.972
    24   1 H    0.991 --    14 C    0.973
 ---------------------------------------------------------------------------

Topologies differ in total number of bonds
Writing topology from bond orders to xtbtopo.mol

molecular dipole:
                 x           y           z       tot (Debye)
 q only:        1.807      -1.209      -0.254
   full:        1.966      -0.940      -0.268       5.582
molecular quadrupole (traceless):
                xx          xy          yy          xz          yz          zz
 q only:        4.705      -1.691      -2.606      -1.026       0.191      -2.099
  q+dip:        4.218      -3.131      -7.079      -0.561      -0.861       2.861
   full:        3.619      -2.843      -7.808      -0.380      -1.125       4.189

           -------------------------------------------------
          |                Geometry Summary                 |
           -------------------------------------------------

      molecular mass/u    :      194.1909174
   center of mass at/Å    :       -0.0954739       0.0008213       0.0088975
  moments of inertia/u·Å² :        0.4711205E+03   0.7067244E+03   0.1168395E+04
rotational constants/cm⁻¹ :        0.3578200E-01   0.2385319E-01   0.1442803E-01

 * 25 selected distances

     #   Z          #   Z                                           value/Å
     1   6 C        2   7 N                                       1.4362829
     2   7 N        3   6 C                                       1.3401499
     3   6 C        4   7 N                                       1.3206669
     4   7 N        5   6 C                                       1.3494745
     2   7 N        6   6 C                                       1.3753352
     5   6 C        6   6 C                                       1.3917533
     6   6 C        7   6 C                                       1.4245421
     7   6 C        8   8 O                                       1.2266250
     7   6 C        9   7 N                                       1.3950502
     9   7 N       10   6 C                                       1.3872891
    10   6 C       11   8 O                                       1.2229971
     5   6 C       12   7 N                                       1.3595920
    10   6 C       12   7 N                                       1.3689090
    12   7 N       13   6 C                                       1.4506102
     9   7 N       14   6 C                                       1.4562097 (max)
     1   6 C       15   1 H                                       1.0863727
     1   6 C       16   1 H                                       1.0900185
     1   6 C       17   1 H                                       1.0898998
     3   6 C       18   1 H                                       1.0710665 (min)
    13   6 C       19   1 H                                       1.0856169
    13   6 C       20   1 H                                       1.0880637
    13   6 C       21   1 H                                       1.0896870
    14   6 C       22   1 H                                       1.0871709
    14   6 C       23   1 H                                       1.0899514
    14   6 C       24   1 H                                       1.0875449

 * 4 distinct bonds (by element types)

   Z      Z             #   av. dist./Å        max./Å        min./Å
   1 H    6 C          10     1.0865392     1.0900185     1.0710665
   6 C    6 C           2     1.4081477     1.4245421     1.3917533
   6 C    7 N          11     1.3854154     1.4562097     1.3206669
   6 C    8 O           2     1.2248111     1.2266250     1.2229971


optimized geometry written to: xtbopt.xyz


           -------------------------------------------------
          | TOTAL ENERGY              -42.171135678021 Eh   |
          | GRADIENT NORM               0.000878541532 Eh/α |
          | HOMO-LUMO GAP               3.394982770944 eV   |
           -------------------------------------------------

------------------------------------------------------------------------
 * finished run on 2024/09/06 at 21:30:08.881     
------------------------------------------------------------------------
 total:
 * wall-time:     0 d,  0 h,  0 min, 31.428 sec
 *  cpu-time:     0 d,  0 h,  0 min,  2.712 sec
 * ratio c/w:     0.086 speedup
 SCF:
 * wall-time:     0 d,  0 h,  0 min,  0.143 sec
 *  cpu-time:     0 d,  0 h,  0 min,  0.576 sec
 * ratio c/w:     4.032 speedup
 ANC optimizer:
 * wall-time:     0 d,  0 h,  0 min,  0.388 sec
 *  cpu-time:     0 d,  0 h,  0 min,  1.153 sec
 * ratio c/w:     2.975 speedup

