      -----------------------------------------------------------      
     |                   =====================                   |     
     |                           x T B                           |     
     |                   =====================                   |     
     |                         S. Grimme                         |     
     |          Mulliken Center for Theoretical Chemistry        |     
     |                    University of Bonn                     |     
      -----------------------------------------------------------      

   * xtb version 6.6.0 (conda-forge) compiled by 'runner@Mac-1676020848589.local' on 2023-02-10

   xtb is free software: you can redistribute it and/or modify it under
   the terms of the GNU Lesser General Public License as published by
   the Free Software Foundation, either version 3 of the License, or
   (at your option) any later version.
   
   xtb is distributed in the hope that it will be useful,
   but WITHOUT ANY WARRANTY; without even the implied warranty of
   MERCHANTABILITY or FITNESS FOR A PARTICULAR PURPOSE.  See the
   GNU Lesser General Public License for more details.
   
   Cite this work as:
   * C. Bannwarth, E. Caldeweyher, S. Ehlert, A. Hansen, P. Pracht,
     J. Seibert, S. Spicher, S. Grimme, WIREs Comput. Mol. Sci., 2020, 11,
     e01493. DOI: 10.1002/wcms.1493
   
   for GFN2-xTB:
   * C. Bannwarth, S. Ehlert and S. Grimme., J. Chem. Theory Comput., 2019,
     15, 1652-1671. DOI: 10.1021/acs.jctc.8b01176
   for GFN1-xTB:
   * S. Grimme, C. Bannwarth, P. Shushkov, J. Chem. Theory Comput., 2017,
     13, 1989-2009. DOI: 10.1021/acs.jctc.7b00118
   for GFN0-xTB:
   * P. Pracht, E. Caldeweyher, S. Ehlert, S. Grimme, ChemRxiv, 2019, preprint.
     DOI: 10.26434/chemrxiv.8326202.v1
   for GFN-FF:
   * S. Spicher and S. Grimme, Angew. Chem. Int. Ed., 2020, 59, 15665-15673.
     DOI: 10.1002/anie.202004239
   
   for ALPB and GBSA implicit solvation:
   * S. Ehlert, M. Stahn, S. Spicher, S. Grimme, J. Chem. Theory Comput.,
     2021, 17, 4250-4261. DOI: 10.1021/acs.jctc.1c00471
   
   for DFT-D4:
   * E. Caldeweyher, C. Bannwarth and S. Grimme, J. Chem. Phys., 2017,
     147, 034112. DOI: 10.1063/1.4993215
   * E. Caldeweyher, S. Ehlert, A. Hansen, H. Neugebauer, S. Spicher,
     C. Bannwarth and S. Grimme, J. Chem. Phys., 2019, 150, 154122.
     DOI: 10.1063/1.5090222
   * E. Caldeweyher, J.-M. Mewes, S. Ehlert and S. Grimme, Phys. Chem. Chem. Phys.
     2020, 22, 8499-8512. DOI: 10.1039/D0CP00502A
   
   for sTDA-xTB:
   * S. Grimme and C. Bannwarth, J. Chem. Phys., 2016, 145, 054103.
     DOI: 10.1063/1.4959605
   
   in the mass-spec context:
   * V. Asgeirsson, C. Bauer and S. Grimme, Chem. Sci., 2017, 8, 4879.
     DOI: 10.1039/c7sc00601b
   * J. Koopman and S. Grimme, ACS Omega 2019, 4, 12, 15120-15133.
     DOI: 10.1021/acsomega.9b02011
   
   for metadynamics refer to:
   * S. Grimme, J. Chem. Theory Comput., 2019, 155, 2847-2862
     DOI: 10.1021/acs.jctc.9b00143
   
   for SPH calculations refer to:
   * S. Spicher and S. Grimme, J. Chem. Theory Comput., 2021, 17, 1701-1714
     DOI: 10.1021/acs.jctc.0c01306
   
   with help from (in alphabetical order)
   P. Atkinson, C. Bannwarth, F. Bohle, G. Brandenburg, E. Caldeweyher
   M. Checinski, S. Dohm, S. Ehlert, S. Ehrlich, I. Gerasimov, C. Hölzer
   A. Katbashev, J. Koopman, C. Lavigne, S. Lehtola, F. März, M. Müller,
   F. Musil, H. Neugebauer, J. Pisarek, C. Plett, P. Pracht, F. Pultar,
   J. Seibert, P. Shushkov, S. Spicher, M. Stahn, M. Steiner, T. Strunk,
   J. Stückrath, T. Rose, and J. Unsleber
   
 * started run on 2024/09/10 at 11:37:53.948     

           -------------------------------------------------
          |                Calculation Setup                |
           -------------------------------------------------

          program call               : xtb caffeine.xyz --opt --gfn2
          coordinate file            : caffeine.xyz
          omp threads                :                     8

   ID    Z sym.   atoms
    1    6 C      1, 3, 5-7, 10, 13, 14
    2    7 N      2, 4, 9, 12
    3    8 O      8, 11
    4    1 H      15-24

           -------------------------------------------------
          |                 G F N 2 - x T B                 |
           -------------------------------------------------

        Reference                      10.1021/acs.jctc.8b01176
      * Hamiltonian:
        H0-scaling (s, p, d)           1.850000    2.230000    2.230000
        zeta-weighting                 0.500000
      * Dispersion:
        s8                             2.700000
        a1                             0.520000
        a2                             5.000000
        s9                             5.000000
      * Repulsion:
        kExp                           1.500000    1.000000
        rExp                           1.000000
      * Coulomb:
        alpha                          2.000000
        third order                    shell-resolved
        anisotropic                    true
        a3                             3.000000
        a5                             4.000000
        cn-shift                       1.200000
        cn-exp                         4.000000
        max-rad                        5.000000

q/qsh data taken from xtbrestart
CAMM data taken from xtbrestart

          ...................................................
          :                      SETUP                      :
          :.................................................:
          :  # basis functions                  66          :
          :  # atomic orbitals                  66          :
          :  # shells                           38          :
          :  # electrons                        74          :
          :  max. iterations                   250          :
          :  Hamiltonian                  GFN2-xTB          :
          :  restarted?                       true          :
          :  GBSA solvation                  false          :
          :  PC potential                    false          :
          :  electronic temp.          300.0000000     K    :
          :  accuracy                    1.0000000          :
          :  -> integral cutoff          0.2500000E+02      :
          :  -> integral neglect         0.1000000E-07      :
          :  -> SCF convergence          0.1000000E-05 Eh   :
          :  -> wf. convergence          0.1000000E-03 e    :
          :  Broyden damping             0.4000000          :
          ...................................................

 iter      E             dE          RMSdq      gap      omega  full diag
   1    -42.6020593 -0.426021E+02  0.197E+00    3.32       0.0  T
   2    -42.6068899 -0.483058E-02  0.116E+00    3.36       1.0  T
   3    -42.6064376  0.452260E-03  0.322E-01    3.28       1.0  T
   4    -42.6073999 -0.962356E-03  0.118E-01    3.33       1.0  T
   5    -42.6075754 -0.175462E-03  0.517E-02    3.32       1.0  T
   6    -42.6075764 -0.980849E-06  0.174E-02    3.32       1.2  T
   7    -42.6075783 -0.194466E-05  0.365E-03    3.32       5.6  T
   8    -42.6075784 -0.112737E-06  0.176E-03    3.32      11.6  T
   9    -42.6075785 -0.126849E-07  0.629E-04    3.32      32.5  T
  10    -42.6075785 -0.333375E-08  0.244E-04    3.32      83.7  T

   *** convergence criteria satisfied after 10 iterations ***

         #    Occupation            Energy/Eh            Energy/eV
      -------------------------------------------------------------
         1        2.0000           -0.7262869             -19.7633
       ...           ...                  ...                  ...
        31        2.0000           -0.4629657             -12.5979
        32        2.0000           -0.4358638             -11.8605
        33        2.0000           -0.4219886             -11.4829
        34        2.0000           -0.4181479             -11.3784
        35        2.0000           -0.4100837             -11.1589
        36        2.0000           -0.3983616             -10.8400
        37        2.0000           -0.3910624             -10.6413 (HOMO)
        38                         -0.2689919              -7.3196 (LUMO)
        39                         -0.2278186              -6.1993
        40                         -0.2151899              -5.8556
        41                         -0.1161241              -3.1599
        42                         -0.0672467              -1.8299
       ...                                ...                  ...
        66                          0.6651501              18.0997
      -------------------------------------------------------------
                  HL-Gap            0.1220705 Eh            3.3217 eV
             Fermi-level           -0.3300271 Eh           -8.9805 eV

 SCC (total)                   0 d,  0 h,  0 min,  0.023 sec
 SCC setup                      ...        0 min,  0.002 sec (  9.789%)
 Dispersion                     ...        0 min,  0.001 sec (  2.177%)
 classical contributions        ...        0 min,  0.000 sec (  1.457%)
 integral evaluation            ...        0 min,  0.002 sec (  8.447%)
 iterations                     ...        0 min,  0.015 sec ( 65.307%)
 molecular gradient             ...        0 min,  0.002 sec ( 10.016%)
 printout                       ...        0 min,  0.001 sec (  2.738%)

         :::::::::::::::::::::::::::::::::::::::::::::::::::::
         ::                     SUMMARY                     ::
         :::::::::::::::::::::::::::::::::::::::::::::::::::::
         :: total energy             -42.131861447205 Eh    ::
         :: gradient norm              0.161582481758 Eh/a0 ::
         :: HOMO-LUMO gap              3.321706600029 eV    ::
         ::.................................................::
         :: SCC energy               -42.607578465547 Eh    ::
         :: -> isotropic ES            0.093434158539 Eh    ::
         :: -> anisotropic ES          0.003381808693 Eh    ::
         :: -> anisotropic XC          0.014297536969 Eh    ::
         :: -> dispersion             -0.023189310689 Eh    ::
         :: repulsion energy           0.475626017405 Eh    ::
         :: add. restraining           0.000000000000 Eh    ::
         :: total charge              -0.000000000000 e     ::
         :::::::::::::::::::::::::::::::::::::::::::::::::::::

      ----------------------------------------------------------- 
     |                   =====================                   |
     |                        A N C O P T                        |
     |                   =====================                   |
     |               Approximate Normal Coordinate               |
     |                Rational Function Optimizer                |
      ----------------------------------------------------------- 

          ...................................................
          :                      SETUP                      :
          :.................................................:
          :   optimization level            normal          :
          :   max. optcycles                   200          :
          :   ANC micro-cycles                  20          :
          :   degrees of freedom                66          :
          :.................................................:
          :   RF solver                   davidson          :
          :   write xtbopt.log                true          :
          :   linear?                        false          :
          :   energy convergence         0.5000000E-05 Eh   :
          :   grad. convergence          0.1000000E-02 Eh/α :
          :   maxmium RF displ.          1.0000000          :
          :   Hlow (freq-cutoff)         0.1000000E-01      :
          :   Hmax (freq-cutoff)         5.0000000          :
          :   S6 in model hess.         20.0000000          :
          ...................................................

generating ANC from model Hessian ...
Using Lindh-Hessian (1995)
 Shifting diagonal of input Hessian by    6.8458187777964627E-003
 Lowest  eigenvalues of input Hessian
    0.000000    0.000000    0.000000    0.000000    0.000000    0.000000
    0.010000    0.011181    0.012348    0.015402    0.015625    0.017498
    0.018458    0.019251    0.026271    0.029496    0.040207    0.046689
 Highest eigenvalues
    2.057958    2.073903    2.092749    2.185954    2.434196    2.458696


........................................................................
.............................. CYCLE    1 ..............................
........................................................................

 iter      E             dE          RMSdq      gap      omega  full diag
   1    -42.6075785 -0.426076E+02  0.112E-04    3.32       0.0  T
   2    -42.6075785 -0.316973E-10  0.689E-05    3.32     296.1  T
   3    -42.6075785  0.181899E-11  0.438E-05    3.32     466.5  T
     SCC iter.                  ...        0 min,  0.002 sec
     gradient                   ...        0 min,  0.002 sec
 * total energy  :   -42.1318614 Eh     change       -0.1918821E-09 Eh
   gradient norm :     0.1615840 Eh/α   predicted     0.0000000E+00 (-100.00%)
   displ. norm   :     0.3038807 α      lambda       -0.2463248E-01
   maximum displ.:     0.1839395 α      in ANC's #13, #21, #14, ...

........................................................................
.............................. CYCLE    2 ..............................
........................................................................

 iter      E             dE          RMSdq      gap      omega  full diag
   1    -42.6467786 -0.426468E+02  0.346E-01    3.40       0.0  T
   2    -42.6477974 -0.101873E-02  0.203E-01    3.37       1.0  T
   3    -42.6479184 -0.121055E-03  0.104E-01    3.39       1.0  T
   4    -42.6479199 -0.152249E-05  0.421E-02    3.38       1.0  T
   5    -42.6479463 -0.263204E-04  0.897E-03    3.38       2.3  T
   6    -42.6479466 -0.384416E-06  0.445E-03    3.38       4.6  T
   7    -42.6479467 -0.664723E-07  0.172E-03    3.38      11.9  T
   8    -42.6479467 -0.272246E-07  0.509E-04    3.38      40.1  T
   9    -42.6479467 -0.183748E-08  0.211E-04    3.38      96.9  T
     SCC iter.                  ...        0 min,  0.006 sec
     gradient                   ...        0 min,  0.002 sec
 * total energy  :   -42.1490818 Eh     change       -0.1722038E-01 Eh
   gradient norm :     0.0690889 Eh/α   predicted    -0.1346364E-01 ( -21.82%)
   displ. norm   :     0.2341395 α      lambda       -0.7230714E-02
   maximum displ.:     0.1384745 α      in ANC's #13, #21, #36, ...

........................................................................
.............................. CYCLE    3 ..............................
........................................................................

 iter      E             dE          RMSdq      gap      omega  full diag
   1    -42.6677522 -0.426678E+02  0.278E-01    3.45       0.0  T
   2    -42.6683102 -0.557973E-03  0.151E-01    3.42       1.0  T
   3    -42.6683754 -0.652100E-04  0.787E-02    3.43       1.0  T
   4    -42.6683827 -0.732629E-05  0.320E-02    3.42       1.0  T
   5    -42.6683982 -0.155015E-04  0.674E-03    3.42       3.0  T
   6    -42.6683984 -0.221926E-06  0.335E-03    3.42       6.1  T
   7    -42.6683985 -0.487233E-07  0.120E-03    3.42      17.0  T
   8    -42.6683985 -0.134994E-07  0.360E-04    3.42      56.8  T
   9    -42.6683985 -0.832429E-09  0.152E-04    3.42     134.6  T
     SCC iter.                  ...        0 min,  0.005 sec
     gradient                   ...        0 min,  0.002 sec
 * total energy  :   -42.1530729 Eh     change       -0.3991093E-02 Eh
   gradient norm :     0.0163327 Eh/α   predicted    -0.3813994E-02 (  -4.44%)
   displ. norm   :     0.1051131 α      lambda       -0.5856990E-03
   maximum displ.:     0.0594880 α      in ANC's #5, #2, #13, ...

........................................................................
.............................. CYCLE    4 ..............................
........................................................................

 iter      E             dE          RMSdq      gap      omega  full diag
   1    -42.6667808 -0.426668E+02  0.753E-02    3.43       0.0  T
   2    -42.6667959 -0.151084E-04  0.427E-02    3.43       1.0  T
   3    -42.6667943  0.157148E-05  0.216E-02    3.43       1.0  T
   4    -42.6667985 -0.418009E-05  0.602E-03    3.43       3.4  T
   5    -42.6667991 -0.598909E-06  0.147E-03    3.43      13.9  T
   6    -42.6667991 -0.555657E-08  0.817E-04    3.43      25.0  T
   7    -42.6667991 -0.178018E-08  0.186E-04    3.43     109.7  T
     SCC iter.                  ...        0 min,  0.005 sec
     gradient                   ...        0 min,  0.002 sec
 * total energy  :   -42.1534730 Eh     change       -0.4001252E-03 Eh
   gradient norm :     0.0080205 Eh/α   predicted    -0.2961350E-03 ( -25.99%)
   displ. norm   :     0.0906258 α      lambda       -0.2118684E-03
   maximum displ.:     0.0579831 α      in ANC's #5, #2, #7, ...

........................................................................
.............................. CYCLE    5 ..............................
........................................................................

 iter      E             dE          RMSdq      gap      omega  full diag
   1    -42.6657966 -0.426658E+02  0.464E-02    3.43       0.0  T
   2    -42.6658037 -0.716197E-05  0.261E-02    3.43       1.0  T
   3    -42.6658035  0.197407E-06  0.127E-02    3.43       1.6  T
   4    -42.6658044 -0.874271E-06  0.401E-03    3.43       5.1  T
   5    -42.6658047 -0.300040E-06  0.942E-04    3.43      21.7  T
   6    -42.6658047 -0.364636E-08  0.507E-04    3.43      40.3  T
     SCC iter.                  ...        0 min,  0.004 sec
     gradient                   ...        0 min,  0.002 sec
 * total energy  :   -42.1535944 Eh     change       -0.1213798E-03 Eh
   gradient norm :     0.0032681 Eh/α   predicted    -0.1068077E-03 ( -12.01%)
   displ. norm   :     0.0356122 α      lambda       -0.2526933E-04
   maximum displ.:     0.0245960 α      in ANC's #2, #5, #4, ...

........................................................................
.............................. CYCLE    6 ..............................
........................................................................

 iter      E             dE          RMSdq      gap      omega  full diag
   1    -42.6659199 -0.426659E+02  0.128E-02    3.43       0.0  T
   2    -42.6659202 -0.321266E-06  0.745E-03    3.43       2.7  T
   3    -42.6659202 -0.465761E-10  0.214E-03    3.43       9.5  T
   4    -42.6659202 -0.205521E-07  0.590E-04    3.43      34.6  T
   5    -42.6659202 -0.523358E-08  0.251E-04    3.43      81.3  T
     SCC iter.                  ...        0 min,  0.004 sec
     gradient                   ...        0 min,  0.002 sec
 * total energy  :   -42.1536134 Eh     change       -0.1899060E-04 Eh
   gradient norm :     0.0021976 Eh/α   predicted    -0.1265289E-04 ( -33.37%)
   displ. norm   :     0.0527648 α      lambda       -0.2425208E-04
   maximum displ.:     0.0371249 α      in ANC's #2, #5, #8, ...

........................................................................
.............................. CYCLE    7 ..............................
........................................................................

 iter      E             dE          RMSdq      gap      omega  full diag
   1    -42.6662321 -0.426662E+02  0.191E-02    3.43       0.0  T
   2    -42.6662323 -0.210468E-06  0.112E-02    3.43       1.8  T
   3    -42.6662322  0.497883E-07  0.225E-03    3.43       9.1  T
   4    -42.6662323 -0.886830E-07  0.825E-04    3.43      24.8  T
   5    -42.6662323 -0.903351E-08  0.358E-04    3.43      57.0  T
     SCC iter.                  ...        0 min,  0.003 sec
     gradient                   ...        0 min,  0.002 sec
 * total energy  :   -42.1536293 Eh     change       -0.1590509E-04 Eh
   gradient norm :     0.0014772 Eh/α   predicted    -0.1217391E-04 ( -23.46%)
   displ. norm   :     0.0536501 α      lambda       -0.8900295E-05
   maximum displ.:     0.0361173 α      in ANC's #2, #8, #4, ...

........................................................................
.............................. CYCLE    8 ..............................
........................................................................

 iter      E             dE          RMSdq      gap      omega  full diag
   1    -42.6663950 -0.426664E+02  0.190E-02    3.43       0.0  T
   2    -42.6663951 -0.886995E-07  0.111E-02    3.43       1.8  T
   3    -42.6663951  0.393524E-07  0.190E-03    3.43      10.7  T
   4    -42.6663952 -0.749694E-07  0.548E-04    3.43      37.2  T
   5    -42.6663952 -0.901260E-09  0.270E-04    3.43      75.6  T
     SCC iter.                  ...        0 min,  0.005 sec
     gradient                   ...        0 min,  0.002 sec
 * total energy  :   -42.1536377 Eh     change       -0.8414622E-05 Eh
   gradient norm :     0.0015821 Eh/α   predicted    -0.4467434E-05 ( -46.91%)
   displ. norm   :     0.0549743 α      lambda        0.2336287E-05
   maximum displ.:     0.0369499 α      in ANC's #2, #8, #4, ...

........................................................................
.............................. CYCLE    9 ..............................
........................................................................

 iter      E             dE          RMSdq      gap      omega  full diag
   1    -42.6664602 -0.426665E+02  0.194E-02    3.42       0.0  T
   2    -42.6664603 -0.928703E-07  0.113E-02    3.42       1.8  T
   3    -42.6664603  0.425532E-07  0.195E-03    3.42      10.5  T
   4    -42.6664603 -0.797909E-07  0.559E-04    3.42      36.5  T
   5    -42.6664603 -0.961592E-09  0.274E-04    3.42      74.5  T
     SCC iter.                  ...        0 min,  0.002 sec
     gradient                   ...        0 min,  0.002 sec
 * total energy  :   -42.1536363 Eh     change        0.1446113E-05 Eh
   gradient norm :     0.0026876 Eh/α   predicted     0.1168051E-05 ( -19.23%)
   displ. norm   :     0.0142422 α      lambda       -0.7816007E-05
   maximum displ.:     0.0081279 α      in ANC's #2, #5, #7, ...

........................................................................
.............................. CYCLE   10 ..............................
........................................................................

 iter      E             dE          RMSdq      gap      omega  full diag
   1    -42.6664243 -0.426664E+02  0.673E-03    3.42       0.0  T
   2    -42.6664243 -0.381693E-07  0.394E-03    3.42       5.2  T
   3    -42.6664243  0.211155E-07  0.129E-03    3.42      15.8  T
   4    -42.6664243 -0.305763E-07  0.296E-04    3.43      68.9  T
   5    -42.6664243 -0.116336E-08  0.130E-04    3.42     157.5  T
     SCC iter.                  ...        0 min,  0.003 sec
     gradient                   ...        0 min,  0.002 sec
 * total energy  :   -42.1536426 Eh     change       -0.6337238E-05 Eh
   gradient norm :     0.0016638 Eh/α   predicted    -0.3930004E-05 ( -37.99%)
   displ. norm   :     0.0516049 α      lambda       -0.1248698E-04
   maximum displ.:     0.0252784 α      in ANC's #3, #5, #8, ...

........................................................................
.............................. CYCLE   11 ..............................
........................................................................

 iter      E             dE          RMSdq      gap      omega  full diag
   1    -42.6661493 -0.426661E+02  0.172E-02    3.43       0.0  T
   2    -42.6661495 -0.272943E-06  0.101E-02    3.43       2.0  T
   3    -42.6661494  0.905857E-07  0.310E-03    3.43       6.6  T
   4    -42.6661496 -0.143072E-06  0.751E-04    3.43      27.2  T
   5    -42.6661496 -0.719860E-08  0.324E-04    3.43      63.0  T
     SCC iter.                  ...        0 min,  0.003 sec
     gradient                   ...        0 min,  0.002 sec
 * total energy  :   -42.1536520 Eh     change       -0.9327837E-05 Eh
   gradient norm :     0.0014942 Eh/α   predicted    -0.6253387E-05 ( -32.96%)
   displ. norm   :     0.0556352 α      lambda       -0.5623592E-05
   maximum displ.:     0.0303980 α      in ANC's #8, #3, #4, ...

........................................................................
.............................. CYCLE   12 ..............................
........................................................................

 iter      E             dE          RMSdq      gap      omega  full diag
   1    -42.6661409 -0.426661E+02  0.125E-02    3.43       0.0  T
   2    -42.6661409 -0.230254E-07  0.744E-03    3.43       2.7  T
   3    -42.6661409  0.232476E-07  0.121E-03    3.43      16.9  T
   4    -42.6661409 -0.325228E-07  0.331E-04    3.43      61.7  T
   5    -42.6661409 -0.561812E-09  0.138E-04    3.43     148.1  T
     SCC iter.                  ...        0 min,  0.002 sec
     gradient                   ...        0 min,  0.002 sec
 * total energy  :   -42.1536599 Eh     change       -0.7939067E-05 Eh
   gradient norm :     0.0016351 Eh/α   predicted    -0.2818983E-05 ( -64.49%)
   displ. norm   :     0.5496773 α      lambda       -0.5587834E-04
   maximum displ.:     0.3080888 α      in ANC's #8, #3, #4, ...

........................................................................
.............................. CYCLE   13 ..............................
........................................................................

 iter      E             dE          RMSdq      gap      omega  full diag
   1    -42.6610731 -0.426611E+02  0.124E-01    3.43       0.0  T
   2    -42.6610812 -0.816038E-05  0.732E-02    3.43       1.0  T
   3    -42.6610809  0.349253E-06  0.120E-02    3.43       1.7  T
   4    -42.6610821 -0.120154E-05  0.481E-03    3.43       4.2  T
   5    -42.6610824 -0.306260E-06  0.218E-03    3.43       9.4  T
   6    -42.6610824 -0.143466E-07  0.415E-04    3.43      49.2  T
   7    -42.6610824 -0.118602E-08  0.185E-04    3.43     110.5  T
     SCC iter.                  ...        0 min,  0.004 sec
     gradient                   ...        0 min,  0.002 sec
 * total energy  :   -42.1533979 Eh     change        0.2619573E-03 Eh
   gradient norm :     0.0157005 Eh/α   predicted    -0.3169194E-04 (-112.10%)
   displ. norm   :     0.2742065 α      lambda       -0.6715677E-03
   maximum displ.:     0.1523530 α      in ANC's #8, #3, #4, ...

........................................................................
.............................. CYCLE   14 ..............................
........................................................................

 iter      E             dE          RMSdq      gap      omega  full diag
   1    -42.6657399 -0.426657E+02  0.705E-02    3.43       0.0  T
   2    -42.6657441 -0.421424E-05  0.409E-02    3.43       1.0  T
   3    -42.6657443 -0.194040E-06  0.788E-03    3.43       2.6  T
   4    -42.6657444 -0.173550E-06  0.252E-03    3.43       8.1  T
   5    -42.6657445 -0.514515E-07  0.137E-03    3.43      14.9  T
   6    -42.6657445 -0.115626E-07  0.246E-04    3.43      83.0  T
   7    -42.6657445 -0.323695E-09  0.108E-04    3.43     189.8  T
     SCC iter.                  ...        0 min,  0.005 sec
     gradient                   ...        0 min,  0.002 sec
 * total energy  :   -42.1536922 Eh     change       -0.2942505E-03 Eh
   gradient norm :     0.0030306 Eh/α   predicted    -0.3610419E-03 (  22.70%)
   displ. norm   :     0.0173316 α      lambda       -0.1440662E-04
   maximum displ.:     0.0092620 α      in ANC's #8, #4, #3, ...

........................................................................
.............................. CYCLE   15 ..............................
........................................................................

 iter      E             dE          RMSdq      gap      omega  full diag
   1    -42.6662043 -0.426662E+02  0.646E-03    3.43       0.0  T
   2    -42.6662043 -0.494437E-07  0.370E-03    3.43       5.5  T
   3    -42.6662043  0.515516E-08  0.108E-03    3.43      18.8  T
   4    -42.6662043 -0.879268E-08  0.368E-04    3.43      55.4  T
   5    -42.6662043 -0.220872E-08  0.136E-04    3.43     150.2  T
     SCC iter.                  ...        0 min,  0.003 sec
     gradient                   ...        0 min,  0.002 sec
 * total energy  :   -42.1537041 Eh     change       -0.1188228E-04 Eh
   gradient norm :     0.0019867 Eh/α   predicted    -0.7207529E-05 ( -39.34%)
   displ. norm   :     0.1080657 α      lambda       -0.2917798E-04
   maximum displ.:     0.0629490 α      in ANC's #8, #4, #3, ...

........................................................................
.............................. CYCLE   16 ..............................
........................................................................

 iter      E             dE          RMSdq      gap      omega  full diag
   1    -42.6670650 -0.426671E+02  0.279E-02    3.43       0.0  T
   2    -42.6670653 -0.366639E-06  0.164E-02    3.43       1.2  T
   3    -42.6670652  0.114215E-06  0.336E-03    3.43       6.1  T
   4    -42.6670654 -0.170422E-06  0.111E-03    3.43      18.4  T
   5    -42.6670654 -0.165962E-07  0.464E-04    3.43      44.0  T
   6    -42.6670654 -0.289930E-09  0.128E-04    3.43     159.5  T
     SCC iter.                  ...        0 min,  0.004 sec
     gradient                   ...        0 min,  0.002 sec
 * total energy  :   -42.1537305 Eh     change       -0.2642521E-04 Eh
   gradient norm :     0.0018818 Eh/α   predicted    -0.1466584E-04 ( -44.50%)
   displ. norm   :     0.2069782 α      lambda       -0.3012358E-04
   maximum displ.:     0.1252419 α      in ANC's #8, #4, #3, ...

........................................................................
.............................. CYCLE   17 ..............................
........................................................................

 iter      E             dE          RMSdq      gap      omega  full diag
   1    -42.6662962 -0.426663E+02  0.447E-02    3.43       0.0  T
   2    -42.6662966 -0.367047E-06  0.267E-02    3.42       1.0  T
   3    -42.6662966 -0.121722E-07  0.244E-03    3.43       8.4  T
   4    -42.6662967 -0.703749E-07  0.113E-03    3.42      18.0  T
   5    -42.6662967 -0.105751E-07  0.535E-04    3.42      38.2  T
   6    -42.6662967 -0.119164E-08  0.163E-04    3.42     125.4  T
     SCC iter.                  ...        0 min,  0.003 sec
     gradient                   ...        0 min,  0.002 sec
 * total energy  :   -42.1537735 Eh     change       -0.4300598E-04 Eh
   gradient norm :     0.0009671 Eh/α   predicted    -0.1535395E-04 ( -64.30%)
   displ. norm   :     0.6148016 α      lambda       -0.6653144E-04
   maximum displ.:     0.3725485 α      in ANC's #8, #4, #3, ...

........................................................................
.............................. CYCLE   18 ..............................
........................................................................

 iter      E             dE          RMSdq      gap      omega  full diag
   1    -42.6565855 -0.426566E+02  0.146E-01    3.42       0.0  T
   2    -42.6566071 -0.216177E-04  0.843E-02    3.42       1.0  T
   3    -42.6566082 -0.109795E-05  0.185E-02    3.42       1.1  T
   4    -42.6566091 -0.921519E-06  0.489E-03    3.42       4.2  T
   5    -42.6566092 -0.888133E-07  0.259E-03    3.42       7.9  T
   6    -42.6566093 -0.403778E-07  0.613E-04    3.42      33.3  T
   7    -42.6566093 -0.365900E-08  0.276E-04    3.42      74.1  T
     SCC iter.                  ...        0 min,  0.003 sec
     gradient                   ...        0 min,  0.002 sec
 * total energy  :   -42.1528698 Eh     change        0.9037352E-03 Eh
   gradient norm :     0.0258621 Eh/α   predicted    -0.3885732E-04 (-104.30%)
   displ. norm   :     0.3304986 α      lambda       -0.1731270E-02
   maximum displ.:     0.2004936 α      in ANC's #8, #4, #3, ...

........................................................................
.............................. CYCLE   19 ..............................
........................................................................

 iter      E             dE          RMSdq      gap      omega  full diag
   1    -42.6639127 -0.426639E+02  0.887E-02    3.42       0.0  T
   2    -42.6639225 -0.983547E-05  0.506E-02    3.42       1.0  T
   3    -42.6639230 -0.518198E-06  0.124E-02    3.42       1.6  T
   4    -42.6639233 -0.263714E-06  0.299E-03    3.42       6.8  T
   5    -42.6639233 -0.258024E-07  0.154E-03    3.42      13.2  T
   6    -42.6639234 -0.150688E-07  0.363E-04    3.42      56.2  T
   7    -42.6639234 -0.133781E-08  0.162E-04    3.42     125.9  T
     SCC iter.                  ...        0 min,  0.004 sec
     gradient                   ...        0 min,  0.002 sec
 * total energy  :   -42.1537471 Eh     change       -0.8773631E-03 Eh
   gradient norm :     0.0072338 Eh/α   predicted    -0.9601036E-03 (   9.43%)
   displ. norm   :     0.0424983 α      lambda       -0.5859755E-04
   maximum displ.:     0.0260910 α      in ANC's #8, #4, #3, ...

........................................................................
.............................. CYCLE   20 ..............................
........................................................................

 iter      E             dE          RMSdq      gap      omega  full diag
   1    -42.6650627 -0.426651E+02  0.134E-02    3.42       0.0  T
   2    -42.6650629 -0.265129E-06  0.757E-03    3.42       2.7  T
   3    -42.6650630 -0.128765E-07  0.205E-03    3.42      10.0  T
   4    -42.6650630 -0.712346E-08  0.515E-04    3.42      39.6  T
   5    -42.6650630 -0.140690E-08  0.273E-04    3.42      74.9  T
     SCC iter.                  ...        0 min,  0.003 sec
     gradient                   ...        0 min,  0.002 sec
 * total energy  :   -42.1537905 Eh     change       -0.4339970E-04 Eh
   gradient norm :     0.0041606 Eh/α   predicted    -0.2935369E-04 ( -32.36%)
   displ. norm   :     0.0360897 α      lambda       -0.3215483E-04
   maximum displ.:     0.0221337 α      in ANC's #8, #4, #3, ...
 * RMSD in coord.:     0.2567079 α      energy gain  -0.2192908E-01 Eh

generating ANC from model Hessian ...
Using Lindh-Hessian (1995)
 Shifting diagonal of input Hessian by    6.7521585346815103E-003
 Lowest  eigenvalues of input Hessian
    0.000000    0.000000    0.000000    0.000000    0.000000    0.000000
    0.010000    0.010952    0.012536    0.015925    0.016546    0.018812
    0.019537    0.020766    0.028260    0.030463    0.043762    0.051063
 Highest eigenvalues
    2.032968    2.114129    2.157932    2.202831    2.428176    2.516204


........................................................................
.............................. CYCLE   21 ..............................
........................................................................

 iter      E             dE          RMSdq      gap      omega  full diag
   1    -42.6661477 -0.426661E+02  0.132E-02    3.42       0.0  T
   2    -42.6661479 -0.255059E-06  0.743E-03    3.42       2.7  T
   3    -42.6661479 -0.719503E-08  0.210E-03    3.42       9.7  T
   4    -42.6661480 -0.117465E-07  0.638E-04    3.42      32.0  T
   5    -42.6661480 -0.463044E-08  0.311E-04    3.42      65.7  T
     SCC iter.                  ...        0 min,  0.003 sec
     gradient                   ...        0 min,  0.002 sec
 * total energy  :   -42.1538091 Eh     change       -0.1858739E-04 Eh
   gradient norm :     0.0012016 Eh/α   predicted     0.0000000E+00 (-100.00%)
   displ. norm   :     0.0206469 α      lambda       -0.1480142E-05
   maximum displ.:     0.0141942 α      in ANC's #2, #3, #5, ...

........................................................................
.............................. CYCLE   22 ..............................
........................................................................

 iter      E             dE          RMSdq      gap      omega  full diag
   1    -42.6666139 -0.426666E+02  0.670E-03    3.42       0.0  T
   2    -42.6666140 -0.440223E-07  0.384E-03    3.42       5.3  T
   3    -42.6666140  0.210485E-08  0.932E-04    3.42      21.9  T
   4    -42.6666140 -0.635848E-08  0.309E-04    3.42      66.0  T
     SCC iter.                  ...        0 min,  0.002 sec
     gradient                   ...        0 min,  0.002 sec
 * total energy  :   -42.1538141 Eh     change       -0.4959831E-05 Eh
   gradient norm :     0.0004559 Eh/α   predicted    -0.2427888E-05 ( -51.05%)
   displ. norm   :     0.0386183 α      lambda       -0.4564865E-05
   maximum displ.:     0.0247066 α      in ANC's #2, #3, #8, ...

   *** GEOMETRY OPTIMIZATION CONVERGED AFTER 22 ITERATIONS ***

------------------------------------------------------------------------
 total energy gain   :        -0.0219526 Eh      -13.7755 kcal/mol
 total RMSD          :         0.2595269 a0        0.1373 Å
 total power (kW/mol):        -2.6198464 (step) -371.6954 (real)
------------------------------------------------------------------------

 ANCopt (total)                0 d,  0 h,  0 min,  0.155 sec
 optimizer setup                ...        0 min,  0.000 sec (  0.143%)
 model hessian                  ...        0 min,  0.008 sec (  5.402%)
 ANC generation                 ...        0 min,  0.001 sec (  0.797%)
 coordinate transformation      ...        0 min,  0.000 sec (  0.079%)
 single point calculation       ...        0 min,  0.139 sec ( 89.822%)
 optimization log               ...        0 min,  0.003 sec (  1.655%)
 hessian update                 ...        0 min,  0.000 sec (  0.161%)
 rational function              ...        0 min,  0.002 sec (  1.394%)

================
 final structure:
================
24
 xtb: 6.6.0 (conda-forge)
C            3.27587571611959        0.61559125317589       -0.19034515373817
N            2.15778156861543       -0.28276809380920       -0.20379925520114
C            2.15784192525483       -1.61604533950412       -0.37112158420057
N            0.95602927643258       -2.15217698356729       -0.34272227758924
C            0.12202837032499       -1.10699207888074       -0.14650273855697
C            0.83829318693451        0.07781054996820       -0.05361334562372
C            0.21336749481511        1.34768575869515        0.16058382529274
O            0.76590453877117        2.42687332386774        0.25887467767923
N           -1.17441966873913        1.21011802778766        0.25542057653115
C           -1.92259671321629        0.04280020200304        0.15922221606689
O           -3.12991333399358        0.06023330567667        0.25381191707020
N           -1.23181508119257       -1.13452458449309       -0.03685435419454
C           -1.96164092784305       -2.37821059062971       -0.15437014480537
C           -1.95086979230029        2.42021801703274        0.47057421976241
H            4.19826627683765        0.04571610234029       -0.28449864478870
H            3.19484785082473        1.32535327078437       -1.01526385025188
H            3.28387152261490        1.18429332074672        0.74030179803511
H            3.05382151125149       -2.18689138772105       -0.51375125809749
H           -1.29911658562837       -3.18786443879733        0.14074253130492
H           -2.83739993788442       -2.33099839321528        0.49068434412013
H           -2.28914948712516       -2.53172358182862       -1.18413278029557
H           -2.64839426205136        2.26321794972878        1.29139613607992
H           -2.51822922256593        2.66613041165896       -0.42724566226647
H           -1.25428422625683        3.22225397898025        0.70250880766712

 Bond Distances (Angstroems)
 ---------------------------
C1-N2=1.4344         C1-H15=1.0883        C1-H16=1.0912        C1-H17=1.0907        N2-C1=1.4344         N2-C3=1.3437         
N2-C6=1.3761         C3-N2=1.3437         C3-N4=1.3163         C3-H18=1.0719        N4-C3=1.3163         N4-C5=1.3515         
C5-N4=1.3515         C5-C6=1.3876         C5-N12=1.3586        C6-N2=1.3761         C6-C5=1.3876         C6-C7=1.4314         
C7-C6=1.4314         C7-O8=1.2164         C7-N9=1.3978         O8-C7=1.2164         N9-C7=1.3978         N9-C10=1.3898        
N9-C14=1.4538        C10-N9=1.3898        C10-O11=1.2111       C10-N12=1.3790       O11-C10=1.2111       N12-C5=1.3586        
N12-C10=1.3790       N12-C13=1.4468       C13-N12=1.4468       C13-H19=1.0870       C13-H20=1.0887       C13-H21=1.0914       
C14-N9=1.4538        C14-H22=1.0885       C14-H23=1.0902       C14-H24=1.0873       H15-C1=1.0883        H16-C1=1.0912        
H17-C1=1.0907        H18-C3=1.0719        H19-C13=1.0870       H20-C13=1.0887       H21-C13=1.0914       H22-C14=1.0885       
H23-C14=1.0902       H24-C14=1.0873       
 C  H  Rav=1.0875 sigma=0.0054  Rmin=1.0719  Rmax=1.0914    10
 C  C  Rav=1.4095 sigma=0.0219  Rmin=1.3876  Rmax=1.4314     2
 N  C  Rav=1.3862 sigma=0.0421  Rmin=1.3163  Rmax=1.4538    11
 O  C  Rav=1.2138 sigma=0.0026  Rmin=1.2111  Rmax=1.2164     2

 selected bond angles (degree)
 --------------------
H15-C1-N2=109.38               H16-C1-N2=110.02               H16-C1-H15=109.76              H17-C1-N2=109.89               
H17-C1-H15=109.92              H17-C1-H16=107.84              C3-N2-C1=128.50                C6-N2-C1=125.61                
C6-N2-C3=105.88                N4-C3-N2=113.67                H18-C3-N2=123.03               H18-C3-N4=123.31               
C5-N4-C3=104.57                C6-C5-N4=110.58                N12-C5-N4=127.66               N12-C5-C6=121.76               
C5-C6-N2=105.30                C7-C6-N2=131.87                C7-C6-C5=122.83                O8-C7-C6=126.93                
N9-C7-C6=110.87                N9-C7-O8=122.20                C10-N9-C7=127.76               C14-N9-C7=117.28               
C14-N9-C10=114.95              O11-C10-N9=121.27              N12-C10-N9=117.21              N12-C10-O11=121.52             

 selected dihedral angles (degree)
 ---------------------------------
C3-N2-C1-H15=356.73           C3-N2-C1-H16=117.37           C3-N2-C1-H17=235.97           C6-N2-C1-H15=177.35           
C6-N2-C1-H16=297.99           C6-N2-C1-H17= 56.59           N4-C3-N2-C1=180.52            N4-C3-N2-C6=  0.00            
H18-C3-N2-C1=  0.54           H18-C3-N2-C6=180.02           C5-N4-C3-N2=  0.06            C5-N4-C3-H18=180.04           
C6-C5-N4-C3=359.91            N12-C5-N4-C3=180.31           C5-C6-N2-C1=179.45            C5-C6-N2-C3=359.95            
C7-C6-N2-C1=359.22            C7-C6-N2-C3=179.73            N2-C6-C5-N4=  0.09            N2-C6-C5-N12=179.72           
C7-C6-C5-N4=180.29            C7-C6-C5-N12=359.92           O8-C7-C6-N2=359.94            O8-C7-C6-C5=179.68            
N9-C7-C6-N2=180.18            N9-C7-C6-C5=359.92            C10-N9-C7-C6=359.66           C10-N9-C7-O8=179.89           
C14-N9-C7-C6=180.16           C14-N9-C7-O8=  0.39           O11-C10-N9-C7=180.35          O11-C10-N9-C14=359.86         
N12-C10-N9-C7=  0.88          N12-C10-N9-C14=180.39         
           -------------------------------------------------
          |                Final Singlepoint                |
           -------------------------------------------------

          ...................................................
          :                      SETUP                      :
          :.................................................:
          :  # basis functions                  66          :
          :  # atomic orbitals                  66          :
          :  # shells                           38          :
          :  # electrons                        74          :
          :  max. iterations                   250          :
          :  Hamiltonian                  GFN2-xTB          :
          :  restarted?                      false          :
          :  GBSA solvation                  false          :
          :  PC potential                    false          :
          :  electronic temp.          300.0000000     K    :
          :  accuracy                    1.0000000          :
          :  -> integral cutoff          0.2500000E+02      :
          :  -> integral neglect         0.1000000E-07      :
          :  -> SCF convergence          0.1000000E-05 Eh   :
          :  -> wf. convergence          0.1000000E-03 e    :
          :  Broyden damping             0.4000000          :
          ...................................................

 iter      E             dE          RMSdq      gap      omega  full diag
   1    -42.6666140 -0.426666E+02  0.140E-04    3.42       0.0  T
   2    -42.6666140 -0.278249E-10  0.842E-05    3.42     242.4  T
   3    -42.6666140  0.885336E-11  0.514E-05    3.42     397.1  T

   *** convergence criteria satisfied after 3 iterations ***

         #    Occupation            Energy/Eh            Energy/eV
      -------------------------------------------------------------
         1        2.0000           -0.7199585             -19.5911
       ...           ...                  ...                  ...
        31        2.0000           -0.4602075             -12.5229
        32        2.0000           -0.4362067             -11.8698
        33        2.0000           -0.4278888             -11.6434
        34        2.0000           -0.4180719             -11.3763
        35        2.0000           -0.4139302             -11.2636
        36        2.0000           -0.4040581             -10.9950
        37        2.0000           -0.3884376             -10.5699 (HOMO)
        38                         -0.2626410              -7.1468 (LUMO)
        39                         -0.2186221              -5.9490
        40                         -0.2048998              -5.5756
        41                         -0.1215701              -3.3081
        42                         -0.0433915              -1.1807
       ...                                ...                  ...
        66                          0.6955269              18.9263
      -------------------------------------------------------------
                  HL-Gap            0.1257965 Eh            3.4231 eV
             Fermi-level           -0.3255393 Eh           -8.8584 eV

 SCC (total)                   0 d,  0 h,  0 min,  0.004 sec
 SCC setup                      ...        0 min,  0.000 sec (  1.582%)
 Dispersion                     ...        0 min,  0.000 sec (  1.566%)
 classical contributions        ...        0 min,  0.000 sec (  0.545%)
 integral evaluation            ...        0 min,  0.001 sec ( 11.732%)
 iterations                     ...        0 min,  0.002 sec ( 38.722%)
 molecular gradient             ...        0 min,  0.002 sec ( 44.315%)
 printout                       ...        0 min,  0.000 sec (  1.334%)

         :::::::::::::::::::::::::::::::::::::::::::::::::::::
         ::                     SUMMARY                     ::
         :::::::::::::::::::::::::::::::::::::::::::::::::::::
         :: total energy             -42.153814077791 Eh    ::
         :: gradient norm              0.000456488275 Eh/a0 ::
         :: HOMO-LUMO gap              3.423097847581 eV    ::
         ::.................................................::
         :: SCC energy               -42.666613977412 Eh    ::
         :: -> isotropic ES            0.083653974529 Eh    ::
         :: -> anisotropic ES          0.002967944564 Eh    ::
         :: -> anisotropic XC          0.013384907625 Eh    ::
         :: -> dispersion             -0.023328674085 Eh    ::
         :: repulsion energy           0.512699905571 Eh    ::
         :: add. restraining           0.000000000000 Eh    ::
         :: total charge               0.000000000000 e     ::
         :::::::::::::::::::::::::::::::::::::::::::::::::::::

           -------------------------------------------------
          |                Property Printout                |
           -------------------------------------------------

    * Orbital Energies and Occupations

         #    Occupation            Energy/Eh            Energy/eV
      -------------------------------------------------------------
         1        2.0000           -0.7199585             -19.5911
       ...           ...                  ...                  ...
        25        2.0000           -0.5059065             -13.7664
        26        2.0000           -0.5044635             -13.7272
        27        2.0000           -0.5034842             -13.7005
        28        2.0000           -0.4946735             -13.4608
        29        2.0000           -0.4812802             -13.0963
        30        2.0000           -0.4742599             -12.9053
        31        2.0000           -0.4602075             -12.5229
        32        2.0000           -0.4362067             -11.8698
        33        2.0000           -0.4278888             -11.6434
        34        2.0000           -0.4180719             -11.3763
        35        2.0000           -0.4139302             -11.2636
        36        2.0000           -0.4040581             -10.9950
        37        2.0000           -0.3884376             -10.5699 (HOMO)
        38                         -0.2626410              -7.1468 (LUMO)
        39                         -0.2186221              -5.9490
        40                         -0.2048998              -5.5756
        41                         -0.1215701              -3.3081
        42                         -0.0433915              -1.1807
        43                          0.0026447               0.0720
        44                          0.0227064               0.6179
        45                          0.0855846               2.3289
        46                          0.0925674               2.5189
        47                          0.1183408               3.2202
        48                          0.1289943               3.5101
       ...                                ...                  ...
        66                          0.6955269              18.9263
      -------------------------------------------------------------
                  HL-Gap            0.1257965 Eh            3.4231 eV
             Fermi-level           -0.3255393 Eh           -8.8584 eV

     #   Z          covCN         q      C6AA      α(0)
     1   6 C        3.689    -0.055    21.755     6.675
     2   7 N        2.837     0.003    21.215     6.841
     3   6 C        3.203     0.089    25.484     8.224
     4   7 N        1.896    -0.285    28.252     7.880
     5   6 C        3.193     0.123    24.836     8.126
     6   6 C        3.121    -0.041    28.823     8.793
     7   6 C        2.764     0.264    22.556     7.778
     8   8 O        0.858    -0.436    22.417     6.348
     9   7 N        2.750    -0.118    23.558     7.209
    10   6 C        2.731     0.313    21.679     7.623
    11   8 O        0.860    -0.439    22.471     6.356
    12   7 N        2.741    -0.076    22.716     7.079
    13   6 C        3.700    -0.050    21.629     6.651
    14   6 C        3.709    -0.042    21.460     6.621
    15   1 H        0.925     0.066     2.133     2.284
    16   1 H        0.924     0.080     1.974     2.197
    17   1 H        0.924     0.084     1.942     2.180
    18   1 H        0.926     0.055     2.263     2.352
    19   1 H        0.925     0.084     1.937     2.176
    20   1 H        0.925     0.085     1.923     2.169
    21   1 H        0.924     0.067     2.113     2.273
    22   1 H        0.925     0.073     2.050     2.239
    23   1 H        0.925     0.066     2.133     2.284
    24   1 H        0.925     0.089     1.887     2.148

 Mol. C6AA /au·bohr⁶  :       6700.209554
 Mol. C8AA /au·bohr⁸  :     153310.034738
 Mol. α(0) /au        :        124.504131


Wiberg/Mayer (AO) data.
largest (>0.10) Wiberg bond orders for each atom

 ---------------------------------------------------------------------------
     #   Z sym  total        # sym  WBO       # sym  WBO       # sym  WBO
 ---------------------------------------------------------------------------
     1   6 C    3.959 --     2 N    1.000    15 H    0.981    17 H    0.970
                            16 H    0.969
     2   7 N    3.652 --     3 C    1.306     6 C    1.148     1 C    1.000
                             4 N    0.109
     3   6 C    3.955 --     4 N    1.477     2 N    1.306    18 H    0.962
     4   7 N    3.007 --     3 C    1.477     5 C    1.285     2 N    0.109
     5   6 C    3.967 --     6 C    1.346     4 N    1.285    12 N    1.143
     6   6 C    3.935 --     5 C    1.346     2 N    1.148     7 C    1.111
     7   6 C    3.960 --     8 O    1.645     6 C    1.111     9 N    1.096
     8   8 O    2.003 --     7 C    1.645     9 N    0.147
     9   7 N    3.545 --    10 C    1.107     7 C    1.096    14 C    0.982
                             8 O    0.147    11 O    0.131
    10   6 C    3.961 --    11 O    1.635    12 N    1.122     9 N    1.107
    11   8 O    1.989 --    10 C    1.635    12 N    0.139     9 N    0.131
    12   7 N    3.563 --     5 C    1.143    10 C    1.122    13 C    0.981
                            11 O    0.139
    13   6 C    3.948 --    12 N    0.981    19 H    0.977    20 H    0.975
                            21 H    0.973
    14   6 C    3.948 --     9 N    0.982    22 H    0.976    23 H    0.975
                            24 H    0.973
    15   1 H    0.995 --     1 C    0.981
    16   1 H    0.993 --     1 C    0.969
    17   1 H    0.993 --     1 C    0.970
    18   1 H    0.996 --     3 C    0.962
    19   1 H    0.992 --    13 C    0.977
    20   1 H    0.992 --    13 C    0.975
    21   1 H    0.994 --    13 C    0.973
    22   1 H    0.994 --    14 C    0.976
    23   1 H    0.995 --    14 C    0.975
    24   1 H    0.992 --    14 C    0.973
 ---------------------------------------------------------------------------

Topologies differ in total number of bonds
Writing topology from bond orders to xtbtopo.mol

molecular dipole:
                 x           y           z       tot (Debye)
 q only:        1.182      -0.714      -0.143
   full:        1.489      -0.559      -0.181       4.067
molecular quadrupole (traceless):
                xx          xy          yy          xz          yz          zz
 q only:        3.231      -0.686      -2.064      -0.784      -0.128      -1.168
  q+dip:        3.358      -2.241      -6.645      -0.492      -1.136       3.287
   full:        2.729      -2.063      -7.366      -0.321      -1.428       4.637

           -------------------------------------------------
          |                Geometry Summary                 |
           -------------------------------------------------

      molecular mass/u    :      194.1909174
   center of mass at/Å    :       -0.0913781       0.0002399       0.0105111
  moments of inertia/u·Å² :        0.4706652E+03   0.7057280E+03   0.1166934E+04
rotational constants/cm⁻¹ :        0.3581661E-01   0.2388687E-01   0.1444609E-01

 * 25 selected distances

     #   Z          #   Z                                           value/Å
     1   6 C        2   7 N                                       1.4343519
     2   7 N        3   6 C                                       1.3437356
     3   6 C        4   7 N                                       1.3162817
     4   7 N        5   6 C                                       1.3514701
     2   7 N        6   6 C                                       1.3760896
     5   6 C        6   6 C                                       1.3875955
     6   6 C        7   6 C                                       1.4314314
     7   6 C        8   8 O                                       1.2163899
     7   6 C        9   7 N                                       1.3978099
     9   7 N       10   6 C                                       1.3898397
    10   6 C       11   8 O                                       1.2111419
     5   6 C       12   7 N                                       1.3585556
    10   6 C       12   7 N                                       1.3790284
    12   7 N       13   6 C                                       1.4467934
     9   7 N       14   6 C                                       1.4537910 (max)
     1   6 C       15   1 H                                       1.0883139
     1   6 C       16   1 H                                       1.0912464
     1   6 C       17   1 H                                       1.0906832
     3   6 C       18   1 H                                       1.0719086 (min)
    13   6 C       19   1 H                                       1.0870003
    13   6 C       20   1 H                                       1.0887049
    13   6 C       21   1 H                                       1.0914391
    14   6 C       22   1 H                                       1.0885487
    14   6 C       23   1 H                                       1.0901607
    14   6 C       24   1 H                                       1.0873302

 * 4 distinct bonds (by element types)

   Z      Z             #   av. dist./Å        max./Å        min./Å
   1 H    6 C          10     1.0875336     1.0914391     1.0719086
   6 C    6 C           2     1.4095135     1.4314314     1.3875955
   6 C    7 N          11     1.3861588     1.4537910     1.3162817
   6 C    8 O           2     1.2137659     1.2163899     1.2111419


optimized geometry written to: xtbopt.xyz


           -------------------------------------------------
          | TOTAL ENERGY              -42.153814077791 Eh   |
          | GRADIENT NORM               0.000456488275 Eh/α |
          | HOMO-LUMO GAP               3.423097847581 eV   |
           -------------------------------------------------

------------------------------------------------------------------------
 * finished run on 2024/09/10 at 11:38:03.217     
------------------------------------------------------------------------
 total:
 * wall-time:     0 d,  0 h,  0 min,  9.268 sec
 *  cpu-time:     0 d,  0 h,  0 min,  2.985 sec
 * ratio c/w:     0.322 speedup
 SCF:
 * wall-time:     0 d,  0 h,  0 min,  0.024 sec
 *  cpu-time:     0 d,  0 h,  0 min,  0.146 sec
 * ratio c/w:     6.044 speedup
 ANC optimizer:
 * wall-time:     0 d,  0 h,  0 min,  0.161 sec
 *  cpu-time:     0 d,  0 h,  0 min,  1.256 sec
 * ratio c/w:     7.791 speedup

