      -----------------------------------------------------------      
     |                   =====================                   |     
     |                           x T B                           |     
     |                   =====================                   |     
     |                         S. Grimme                         |     
     |          Mulliken Center for Theoretical Chemistry        |     
     |                    University of Bonn                     |     
      -----------------------------------------------------------      

   * xtb version 6.6.0 (conda-forge) compiled by 'runner@Mac-1676020848589.local' on 2023-02-10

   xtb is free software: you can redistribute it and/or modify it under
   the terms of the GNU Lesser General Public License as published by
   the Free Software Foundation, either version 3 of the License, or
   (at your option) any later version.
   
   xtb is distributed in the hope that it will be useful,
   but WITHOUT ANY WARRANTY; without even the implied warranty of
   MERCHANTABILITY or FITNESS FOR A PARTICULAR PURPOSE.  See the
   GNU Lesser General Public License for more details.
   
   Cite this work as:
   * C. Bannwarth, E. Caldeweyher, S. Ehlert, A. Hansen, P. Pracht,
     J. Seibert, S. Spicher, S. Grimme, WIREs Comput. Mol. Sci., 2020, 11,
     e01493. DOI: 10.1002/wcms.1493
   
   for GFN2-xTB:
   * C. Bannwarth, S. Ehlert and S. Grimme., J. Chem. Theory Comput., 2019,
     15, 1652-1671. DOI: 10.1021/acs.jctc.8b01176
   for GFN1-xTB:
   * S. Grimme, C. Bannwarth, P. Shushkov, J. Chem. Theory Comput., 2017,
     13, 1989-2009. DOI: 10.1021/acs.jctc.7b00118
   for GFN0-xTB:
   * P. Pracht, E. Caldeweyher, S. Ehlert, S. Grimme, ChemRxiv, 2019, preprint.
     DOI: 10.26434/chemrxiv.8326202.v1
   for GFN-FF:
   * S. Spicher and S. Grimme, Angew. Chem. Int. Ed., 2020, 59, 15665-15673.
     DOI: 10.1002/anie.202004239
   
   for ALPB and GBSA implicit solvation:
   * S. Ehlert, M. Stahn, S. Spicher, S. Grimme, J. Chem. Theory Comput.,
     2021, 17, 4250-4261. DOI: 10.1021/acs.jctc.1c00471
   
   for DFT-D4:
   * E. Caldeweyher, C. Bannwarth and S. Grimme, J. Chem. Phys., 2017,
     147, 034112. DOI: 10.1063/1.4993215
   * E. Caldeweyher, S. Ehlert, A. Hansen, H. Neugebauer, S. Spicher,
     C. Bannwarth and S. Grimme, J. Chem. Phys., 2019, 150, 154122.
     DOI: 10.1063/1.5090222
   * E. Caldeweyher, J.-M. Mewes, S. Ehlert and S. Grimme, Phys. Chem. Chem. Phys.
     2020, 22, 8499-8512. DOI: 10.1039/D0CP00502A
   
   for sTDA-xTB:
   * S. Grimme and C. Bannwarth, J. Chem. Phys., 2016, 145, 054103.
     DOI: 10.1063/1.4959605
   
   in the mass-spec context:
   * V. Asgeirsson, C. Bauer and S. Grimme, Chem. Sci., 2017, 8, 4879.
     DOI: 10.1039/c7sc00601b
   * J. Koopman and S. Grimme, ACS Omega 2019, 4, 12, 15120-15133.
     DOI: 10.1021/acsomega.9b02011
   
   for metadynamics refer to:
   * S. Grimme, J. Chem. Theory Comput., 2019, 155, 2847-2862
     DOI: 10.1021/acs.jctc.9b00143
   
   for SPH calculations refer to:
   * S. Spicher and S. Grimme, J. Chem. Theory Comput., 2021, 17, 1701-1714
     DOI: 10.1021/acs.jctc.0c01306
   
   with help from (in alphabetical order)
   P. Atkinson, C. Bannwarth, F. Bohle, G. Brandenburg, E. Caldeweyher
   M. Checinski, S. Dohm, S. Ehlert, S. Ehrlich, I. Gerasimov, C. Hölzer
   A. Katbashev, J. Koopman, C. Lavigne, S. Lehtola, F. März, M. Müller,
   F. Musil, H. Neugebauer, J. Pisarek, C. Plett, P. Pracht, F. Pultar,
   J. Seibert, P. Shushkov, S. Spicher, M. Stahn, M. Steiner, T. Strunk,
   J. Stückrath, T. Rose, and J. Unsleber
   
 * started run on 2024/09/13 at 17:46:13.410     

           -------------------------------------------------
          |                Calculation Setup                |
           -------------------------------------------------

          program call               : xtb cotinine.xyz --opt --gfn2
          coordinate file            : cotinine.xyz
          omp threads                :                     8

   ID    Z sym.   atoms
    1    6 C      1, 3-6, 8, 9, 11-13
    2    7 N      2, 10
    3    8 O      7
    4    1 H      14-25

           -------------------------------------------------
          |                 G F N 2 - x T B                 |
           -------------------------------------------------

        Reference                      10.1021/acs.jctc.8b01176
      * Hamiltonian:
        H0-scaling (s, p, d)           1.850000    2.230000    2.230000
        zeta-weighting                 0.500000
      * Dispersion:
        s8                             2.700000
        a1                             0.520000
        a2                             5.000000
        s9                             5.000000
      * Repulsion:
        kExp                           1.500000    1.000000
        rExp                           1.000000
      * Coulomb:
        alpha                          2.000000
        third order                    shell-resolved
        anisotropic                    true
        a3                             3.000000
        a5                             4.000000
        cn-shift                       1.200000
        cn-exp                         4.000000
        max-rad                        5.000000


          ...................................................
          :                      SETUP                      :
          :.................................................:
          :  # basis functions                  64          :
          :  # atomic orbitals                  64          :
          :  # shells                           38          :
          :  # electrons                        68          :
          :  max. iterations                   250          :
          :  Hamiltonian                  GFN2-xTB          :
          :  restarted?                      false          :
          :  GBSA solvation                  false          :
          :  PC potential                    false          :
          :  electronic temp.          300.0000000     K    :
          :  accuracy                    1.0000000          :
          :  -> integral cutoff          0.2500000E+02      :
          :  -> integral neglect         0.1000000E-07      :
          :  -> SCF convergence          0.1000000E-05 Eh   :
          :  -> wf. convergence          0.1000000E-03 e    :
          :  Broyden damping             0.4000000          :
          ...................................................

 iter      E             dE          RMSdq      gap      omega  full diag
   1    -37.8474764 -0.378475E+02  0.430E+00    3.26       0.0  T
   2    -37.9131318 -0.656554E-01  0.256E+00    3.16       1.0  T
   3    -37.9145098 -0.137796E-02  0.123E+00    2.98       1.0  T
   4    -37.9188888 -0.437902E-02  0.288E-01    2.87       1.0  T
   5    -37.9204094 -0.152065E-02  0.960E-02    2.89       1.0  T
   6    -37.9205050 -0.955729E-04  0.442E-02    2.89       1.0  T
   7    -37.9205162 -0.111556E-04  0.207E-02    2.89       1.0  T
   8    -37.9205179 -0.169907E-05  0.530E-03    2.89       3.8  T
   9    -37.9205180 -0.158351E-06  0.213E-03    2.89       9.4  T
  10    -37.9205180 -0.122171E-07  0.109E-03    2.89      18.3  T
  11    -37.9205180 -0.102835E-07  0.425E-04    2.89      47.1  T
  12    -37.9205180 -0.191804E-08  0.151E-04    2.89     132.7  T

   *** convergence criteria satisfied after 12 iterations ***

         #    Occupation            Energy/Eh            Energy/eV
      -------------------------------------------------------------
         1        2.0000           -0.6835711             -18.6009
       ...           ...                  ...                  ...
        28        2.0000           -0.4547610             -12.3747
        29        2.0000           -0.4469283             -12.1615
        30        2.0000           -0.4406722             -11.9913
        31        2.0000           -0.4230422             -11.5116
        32        2.0000           -0.3902167             -10.6183
        33        2.0000           -0.3885654             -10.5734
        34        2.0000           -0.3721834             -10.1276 (HOMO)
        35                         -0.2658152              -7.2332 (LUMO)
        36                         -0.2526081              -6.8738
        37                         -0.2222759              -6.0484
        38                         -0.1368865              -3.7249
        39                         -0.0392471              -1.0680
       ...                                ...                  ...
        64                          0.5601616              15.2428
      -------------------------------------------------------------
                  HL-Gap            0.1063683 Eh            2.8944 eV
             Fermi-level           -0.3189993 Eh           -8.6804 eV

 SCC (total)                   0 d,  0 h,  0 min,  0.032 sec
 SCC setup                      ...        0 min,  0.004 sec ( 11.445%)
 Dispersion                     ...        0 min,  0.001 sec (  2.658%)
 classical contributions        ...        0 min,  0.001 sec (  1.738%)
 integral evaluation            ...        0 min,  0.001 sec (  4.388%)
 iterations                     ...        0 min,  0.022 sec ( 68.024%)
 molecular gradient             ...        0 min,  0.003 sec (  9.102%)
 printout                       ...        0 min,  0.001 sec (  2.584%)

         :::::::::::::::::::::::::::::::::::::::::::::::::::::
         ::                     SUMMARY                     ::
         :::::::::::::::::::::::::::::::::::::::::::::::::::::
         :: total energy             -37.445306613267 Eh    ::
         :: gradient norm              0.139046315291 Eh/a0 ::
         :: HOMO-LUMO gap              2.894428289033 eV    ::
         ::.................................................::
         :: SCC energy               -37.920518034121 Eh    ::
         :: -> isotropic ES            0.047853928979 Eh    ::
         :: -> anisotropic ES          0.004743145116 Eh    ::
         :: -> anisotropic XC          0.025650023065 Eh    ::
         :: -> dispersion             -0.023205233874 Eh    ::
         :: repulsion energy           0.475011452014 Eh    ::
         :: add. restraining           0.000000000000 Eh    ::
         :: total charge              -0.000000000000 e     ::
         :::::::::::::::::::::::::::::::::::::::::::::::::::::

      ----------------------------------------------------------- 
     |                   =====================                   |
     |                        A N C O P T                        |
     |                   =====================                   |
     |               Approximate Normal Coordinate               |
     |                Rational Function Optimizer                |
      ----------------------------------------------------------- 

          ...................................................
          :                      SETUP                      :
          :.................................................:
          :   optimization level            normal          :
          :   max. optcycles                   200          :
          :   ANC micro-cycles                  20          :
          :   degrees of freedom                69          :
          :.................................................:
          :   RF solver                   davidson          :
          :   write xtbopt.log                true          :
          :   linear?                        false          :
          :   energy convergence         0.5000000E-05 Eh   :
          :   grad. convergence          0.1000000E-02 Eh/α :
          :   maxmium RF displ.          1.0000000          :
          :   Hlow (freq-cutoff)         0.1000000E-01      :
          :   Hmax (freq-cutoff)         5.0000000          :
          :   S6 in model hess.         20.0000000          :
          ...................................................

generating ANC from model Hessian ...
Using Lindh-Hessian (1995)
 Shifting diagonal of input Hessian by    8.5766679230850004E-003
 Lowest  eigenvalues of input Hessian
    0.000000    0.000000    0.000000    0.000000    0.000000    0.000000
    0.010000    0.010326    0.011240    0.014102    0.016179    0.017325
    0.021318    0.022913    0.025200    0.031198    0.033613    0.042153
 Highest eigenvalues
    1.550404    1.717831    1.849280    1.914733    1.987443    2.088244


........................................................................
.............................. CYCLE    1 ..............................
........................................................................

 iter      E             dE          RMSdq      gap      omega  full diag
   1    -37.9205180 -0.379205E+02  0.503E-05    2.89       0.0  T
   2    -37.9205180 -0.934364E-11  0.297E-05    2.89     672.8  T
   3    -37.9205180 -0.601830E-11  0.193E-05    2.89    1038.5  T
     SCC iter.                  ...        0 min,  0.003 sec
     gradient                   ...        0 min,  0.002 sec
 * total energy  :   -37.4453066 Eh     change       -0.1944116E-09 Eh
   gradient norm :     0.1390484 Eh/α   predicted     0.0000000E+00 (-100.00%)
   displ. norm   :     0.3075004 α      lambda       -0.2461692E-01
   maximum displ.:     0.1510990 α      in ANC's #13, #39, #29, ...

........................................................................
.............................. CYCLE    2 ..............................
........................................................................

 iter      E             dE          RMSdq      gap      omega  full diag
   1    -37.9822955 -0.379823E+02  0.336E-01    3.06       0.0  T
   2    -37.9826243 -0.328795E-03  0.208E-01    3.09       1.0  T
   3    -37.9825917  0.326417E-04  0.919E-02    3.07       1.0  T
   4    -37.9826765 -0.847930E-04  0.285E-02    3.08       1.0  T
   5    -37.9826882 -0.117773E-04  0.774E-03    3.08       2.6  T
   6    -37.9826884 -0.201966E-06  0.379E-03    3.08       5.3  T
   7    -37.9826885 -0.642231E-07  0.117E-03    3.08      17.1  T
   8    -37.9826885 -0.624693E-08  0.450E-04    3.08      44.5  T
   9    -37.9826885 -0.185049E-08  0.176E-04    3.08     113.8  T
     SCC iter.                  ...        0 min,  0.006 sec
     gradient                   ...        0 min,  0.002 sec
 * total energy  :   -37.4617644 Eh     change       -0.1645779E-01 Eh
   gradient norm :     0.0485115 Eh/α   predicted    -0.1347738E-01 ( -18.11%)
   displ. norm   :     0.2028096 α      lambda       -0.4608206E-02
   maximum displ.:     0.1294334 α      in ANC's #13, #29, #39, ...

........................................................................
.............................. CYCLE    3 ..............................
........................................................................

 iter      E             dE          RMSdq      gap      omega  full diag
   1    -38.0063036 -0.380063E+02  0.180E-01    3.15       0.0  T
   2    -38.0063983 -0.947656E-04  0.112E-01    3.17       1.0  T
   3    -38.0063916  0.672101E-05  0.442E-02    3.16       1.0  T
   4    -38.0064077 -0.161219E-04  0.153E-02    3.16       1.3  T
   5    -38.0064115 -0.379330E-05  0.399E-03    3.16       5.0  T
   6    -38.0064116 -0.468353E-07  0.182E-03    3.16      11.0  T
   7    -38.0064116 -0.142903E-07  0.598E-04    3.16      33.4  T
   8    -38.0064116 -0.248652E-08  0.234E-04    3.16      85.3  T
     SCC iter.                  ...        0 min,  0.007 sec
     gradient                   ...        0 min,  0.002 sec
 * total energy  :   -37.4641335 Eh     change       -0.2369066E-02 Eh
   gradient norm :     0.0125631 Eh/α   predicted    -0.2399157E-02 (   1.27%)
   displ. norm   :     0.0766465 α      lambda       -0.2389811E-03
   maximum displ.:     0.0477674 α      in ANC's #3, #4, #13, ...

........................................................................
.............................. CYCLE    4 ..............................
........................................................................

 iter      E             dE          RMSdq      gap      omega  full diag
   1    -38.0045324 -0.380045E+02  0.352E-02    3.15       0.0  T
   2    -38.0045410 -0.859142E-05  0.236E-02    3.15       1.0  T
   3    -38.0045419 -0.909993E-06  0.121E-02    3.15       1.7  T
   4    -38.0045419  0.170331E-07  0.417E-03    3.15       4.8  T
   5    -38.0045422 -0.353730E-06  0.748E-04    3.15      26.7  T
   6    -38.0045422 -0.138317E-08  0.379E-04    3.15      52.8  T
     SCC iter.                  ...        0 min,  0.005 sec
     gradient                   ...        0 min,  0.002 sec
 * total energy  :   -37.4643004 Eh     change       -0.1668985E-03 Eh
   gradient norm :     0.0048253 Eh/α   predicted    -0.1210814E-03 ( -27.45%)
   displ. norm   :     0.1025334 α      lambda       -0.1128821E-03
   maximum displ.:     0.0757800 α      in ANC's #3, #4, #2, ...

........................................................................
.............................. CYCLE    5 ..............................
........................................................................

 iter      E             dE          RMSdq      gap      omega  full diag
   1    -38.0034765 -0.380035E+02  0.325E-02    3.15       0.0  T
   2    -38.0034793 -0.279830E-05  0.202E-02    3.15       1.0  T
   3    -38.0034790  0.242808E-06  0.880E-03    3.15       2.3  T
   4    -38.0034797 -0.638384E-06  0.269E-03    3.15       7.4  T
   5    -38.0034798 -0.139907E-06  0.618E-04    3.15      32.4  T
   6    -38.0034798 -0.692850E-09  0.237E-04    3.15      84.4  T
     SCC iter.                  ...        0 min,  0.005 sec
     gradient                   ...        0 min,  0.002 sec
 * total energy  :   -37.4643719 Eh     change       -0.7150902E-04 Eh
   gradient norm :     0.0020553 Eh/α   predicted    -0.5703569E-04 ( -20.24%)
   displ. norm   :     0.0714601 α      lambda       -0.3521499E-04
   maximum displ.:     0.0560302 α      in ANC's #3, #4, #2, ...

........................................................................
.............................. CYCLE    6 ..............................
........................................................................

 iter      E             dE          RMSdq      gap      omega  full diag
   1    -38.0033580 -0.380034E+02  0.223E-02    3.15       0.0  T
   2    -38.0033581 -0.125140E-06  0.131E-02    3.15       1.5  T
   3    -38.0033580  0.576252E-07  0.224E-03    3.15       8.9  T
   4    -38.0033581 -0.996279E-07  0.678E-04    3.15      29.5  T
   5    -38.0033581 -0.252244E-08  0.306E-04    3.15      65.3  T
     SCC iter.                  ...        0 min,  0.004 sec
     gradient                   ...        0 min,  0.003 sec
 * total energy  :   -37.4644008 Eh     change       -0.2890966E-04 Eh
   gradient norm :     0.0026417 Eh/α   predicted    -0.1770306E-04 ( -38.76%)
   displ. norm   :     0.0870270 α      lambda       -0.4072479E-04
   maximum displ.:     0.0671254 α      in ANC's #3, #4, #2, ...

........................................................................
.............................. CYCLE    7 ..............................
........................................................................

 iter      E             dE          RMSdq      gap      omega  full diag
   1    -38.0035992 -0.380036E+02  0.293E-02    3.15       0.0  T
   2    -38.0035996 -0.369123E-06  0.172E-02    3.15       1.2  T
   3    -38.0035995  0.388107E-07  0.256E-03    3.15       7.8  T
   4    -38.0035996 -0.113379E-06  0.958E-04    3.15      20.9  T
   5    -38.0035996 -0.824671E-08  0.470E-04    3.15      42.6  T
     SCC iter.                  ...        0 min,  0.004 sec
     gradient                   ...        0 min,  0.002 sec
 * total energy  :   -37.4644345 Eh     change       -0.3368931E-04 Eh
   gradient norm :     0.0022979 Eh/α   predicted    -0.2051686E-04 ( -39.10%)
   displ. norm   :     0.1070446 α      lambda       -0.4167751E-04
   maximum displ.:     0.0852607 α      in ANC's #3, #4, #2, ...

........................................................................
.............................. CYCLE    8 ..............................
........................................................................

 iter      E             dE          RMSdq      gap      omega  full diag
   1    -38.0038898 -0.380039E+02  0.386E-02    3.15       0.0  T
   2    -38.0038904 -0.541997E-06  0.227E-02    3.15       1.0  T
   3    -38.0038903  0.105428E-06  0.341E-03    3.15       5.9  T
   4    -38.0038905 -0.227291E-06  0.135E-03    3.15      14.8  T
   5    -38.0038905 -0.182965E-07  0.622E-04    3.15      32.2  T
   6    -38.0038905 -0.166062E-08  0.133E-04    3.15     150.0  T
     SCC iter.                  ...        0 min,  0.005 sec
     gradient                   ...        0 min,  0.003 sec
 * total energy  :   -37.4644680 Eh     change       -0.3350248E-04 Eh
   gradient norm :     0.0016735 Eh/α   predicted    -0.2107847E-04 ( -37.08%)
   displ. norm   :     0.1571277 α      lambda       -0.3353358E-04
   maximum displ.:     0.1303919 α      in ANC's #3, #2, #4, ...

........................................................................
.............................. CYCLE    9 ..............................
........................................................................

 iter      E             dE          RMSdq      gap      omega  full diag
   1    -38.0040361 -0.380040E+02  0.591E-02    3.15       0.0  T
   2    -38.0040370 -0.878179E-06  0.347E-02    3.15       1.0  T
   3    -38.0040369  0.973712E-07  0.426E-03    3.15       4.7  T
   4    -38.0040372 -0.341011E-06  0.187E-03    3.15      10.7  T
   5    -38.0040372 -0.293101E-07  0.831E-04    3.15      24.1  T
   6    -38.0040372 -0.338312E-08  0.175E-04    3.15     114.0  T
     SCC iter.                  ...        0 min,  0.006 sec
     gradient                   ...        0 min,  0.002 sec
 * total energy  :   -37.4645057 Eh     change       -0.3773508E-04 Eh
   gradient norm :     0.0014871 Eh/α   predicted    -0.1695618E-04 ( -55.07%)
   displ. norm   :     0.1134608 α      lambda       -0.2416551E-04
   maximum displ.:     0.0962594 α      in ANC's #3, #7, #2, ...

........................................................................
.............................. CYCLE   10 ..............................
........................................................................

 iter      E             dE          RMSdq      gap      omega  full diag
   1    -38.0042233 -0.380042E+02  0.432E-02    3.15       0.0  T
   2    -38.0042236 -0.254607E-06  0.254E-02    3.15       1.0  T
   3    -38.0042236 -0.328010E-07  0.209E-03    3.15       9.6  T
   4    -38.0042237 -0.609321E-07  0.105E-03    3.15      19.0  T
   5    -38.0042237 -0.671059E-08  0.311E-04    3.15      64.3  T
   6    -38.0042237 -0.853731E-09  0.106E-04    3.15     189.1  T
     SCC iter.                  ...        0 min,  0.005 sec
     gradient                   ...        0 min,  0.002 sec
 * total energy  :   -37.4645371 Eh     change       -0.3135832E-04 Eh
   gradient norm :     0.0015799 Eh/α   predicted    -0.1216739E-04 ( -61.20%)
   displ. norm   :     0.1557018 α      lambda       -0.3635143E-04
   maximum displ.:     0.1247698 α      in ANC's #3, #7, #2, ...

........................................................................
.............................. CYCLE   11 ..............................
........................................................................

 iter      E             dE          RMSdq      gap      omega  full diag
   1    -38.0040845 -0.380041E+02  0.550E-02    3.15       0.0  T
   2    -38.0040849 -0.370654E-06  0.323E-02    3.15       1.0  T
   3    -38.0040850 -0.844556E-07  0.210E-03    3.15       9.5  T
   4    -38.0040850 -0.404057E-07  0.109E-03    3.15      18.4  T
   5    -38.0040850 -0.547156E-08  0.392E-04    3.15      51.0  T
   6    -38.0040850 -0.267686E-08  0.123E-04    3.15     162.6  T
     SCC iter.                  ...        0 min,  0.005 sec
     gradient                   ...        0 min,  0.002 sec
 * total energy  :   -37.4645841 Eh     change       -0.4705542E-04 Eh
   gradient norm :     0.0019389 Eh/α   predicted    -0.1837239E-04 ( -60.96%)
   displ. norm   :     0.2487615 α      lambda       -0.5478858E-04
   maximum displ.:     0.1902928 α      in ANC's #3, #7, #4, ...

........................................................................
.............................. CYCLE   12 ..............................
........................................................................

 iter      E             dE          RMSdq      gap      omega  full diag
   1    -38.0032463 -0.380032E+02  0.799E-02    3.15       0.0  T
   2    -38.0032471 -0.743881E-06  0.470E-02    3.15       1.0  T
   3    -38.0032471 -0.425297E-07  0.346E-03    3.15       5.8  T
   4    -38.0032473 -0.192088E-06  0.167E-03    3.15      12.0  T
   5    -38.0032473 -0.224804E-07  0.584E-04    3.15      34.2  T
   6    -38.0032473 -0.383184E-08  0.188E-04    3.15     106.5  T
     SCC iter.                  ...        0 min,  0.007 sec
     gradient                   ...        0 min,  0.003 sec
 * total energy  :   -37.4646553 Eh     change       -0.7112807E-04 Eh
   gradient norm :     0.0029027 Eh/α   predicted    -0.2815233E-04 ( -60.42%)
   displ. norm   :     0.2355485 α      lambda       -0.7736940E-04
   maximum displ.:     0.1746854 α      in ANC's #3, #7, #1, ...

........................................................................
.............................. CYCLE   13 ..............................
........................................................................

 iter      E             dE          RMSdq      gap      omega  full diag
   1    -38.0027188 -0.380027E+02  0.698E-02    3.15       0.0  T
   2    -38.0027193 -0.564665E-06  0.410E-02    3.15       1.0  T
   3    -38.0027194 -0.537656E-07  0.290E-03    3.15       6.9  T
   4    -38.0027195 -0.118807E-06  0.146E-03    3.15      13.7  T
   5    -38.0027195 -0.189974E-07  0.469E-04    3.15      42.7  T
   6    -38.0027195 -0.280728E-08  0.143E-04    3.15     139.4  T
     SCC iter.                  ...        0 min,  0.005 sec
     gradient                   ...        0 min,  0.002 sec
 * total energy  :   -37.4647248 Eh     change       -0.6951569E-04 Eh
   gradient norm :     0.0037499 Eh/α   predicted    -0.4083442E-04 ( -41.26%)
   displ. norm   :     0.4346739 α      lambda       -0.1457032E-03
   maximum displ.:     0.3195949 α      in ANC's #3, #7, #1, ...

........................................................................
.............................. CYCLE   14 ..............................
........................................................................

 iter      E             dE          RMSdq      gap      omega  full diag
   1    -38.0002552 -0.380003E+02  0.125E-01    3.14       0.0  T
   2    -38.0002574 -0.214241E-05  0.733E-02    3.14       1.0  T
   3    -38.0002575 -0.159246E-06  0.553E-03    3.15       3.6  T
   4    -38.0002580 -0.405220E-06  0.273E-03    3.14       7.3  T
   5    -38.0002580 -0.658618E-07  0.106E-03    3.14      18.9  T
   6    -38.0002580 -0.104919E-07  0.282E-04    3.14      71.0  T
   7    -38.0002580 -0.611529E-09  0.129E-04    3.14     154.7  T
     SCC iter.                  ...        0 min,  0.005 sec
     gradient                   ...        0 min,  0.002 sec
 * total energy  :   -37.4648208 Eh     change       -0.9600581E-04 Eh
   gradient norm :     0.0074601 Eh/α   predicted    -0.8661717E-04 (  -9.78%)
   displ. norm   :     0.1866306 α      lambda       -0.1179684E-03
   maximum displ.:     0.1290501 α      in ANC's #3, #1, #7, ...

........................................................................
.............................. CYCLE   15 ..............................
........................................................................

 iter      E             dE          RMSdq      gap      omega  full diag
   1    -38.0013782 -0.380014E+02  0.514E-02    3.14       0.0  T
   2    -38.0013786 -0.461751E-06  0.301E-02    3.14       1.0  T
   3    -38.0013786  0.393580E-08  0.278E-03    3.14       7.2  T
   4    -38.0013787 -0.110931E-06  0.129E-03    3.14      15.5  T
   5    -38.0013787 -0.161044E-07  0.531E-04    3.14      37.7  T
   6    -38.0013787 -0.110857E-08  0.117E-04    3.14     170.7  T
     SCC iter.                  ...        0 min,  0.005 sec
     gradient                   ...        0 min,  0.002 sec
 * total energy  :   -37.4649211 Eh     change       -0.1003500E-03 Eh
   gradient norm :     0.0061305 Eh/α   predicted    -0.6103911E-04 ( -39.17%)
   displ. norm   :     0.3124273 α      lambda       -0.2496872E-03
   maximum displ.:     0.2062287 α      in ANC's #3, #1, #7, ...

........................................................................
.............................. CYCLE   16 ..............................
........................................................................

 iter      E             dE          RMSdq      gap      omega  full diag
   1    -38.0040601 -0.380041E+02  0.856E-02    3.14       0.0  T
   2    -38.0040616 -0.143183E-05  0.501E-02    3.14       1.0  T
   3    -38.0040614  0.132306E-06  0.541E-03    3.14       3.7  T
   4    -38.0040619 -0.468533E-06  0.221E-03    3.14       9.1  T
   5    -38.0040619 -0.413163E-07  0.969E-04    3.14      20.6  T
   6    -38.0040619 -0.414919E-08  0.213E-04    3.14      93.9  T
     SCC iter.                  ...        0 min,  0.005 sec
     gradient                   ...        0 min,  0.002 sec
 * total energy  :   -37.4651173 Eh     change       -0.1961408E-03 Eh
   gradient norm :     0.0039246 Eh/α   predicted    -0.1370327E-03 ( -30.14%)
   displ. norm   :     0.6641873 α      lambda       -0.3267232E-03
   maximum displ.:     0.4575580 α      in ANC's #3, #1, #7, ...

........................................................................
.............................. CYCLE   17 ..............................
........................................................................

 iter      E             dE          RMSdq      gap      omega  full diag
   1    -37.9976324 -0.379976E+02  0.181E-01    3.14       0.0  T
   2    -37.9976398 -0.735762E-05  0.106E-01    3.14       1.0  T
   3    -37.9976400 -0.201403E-06  0.104E-02    3.14       1.9  T
   4    -37.9976412 -0.121377E-05  0.470E-03    3.14       4.3  T
   5    -37.9976414 -0.191030E-06  0.220E-03    3.14       9.1  T
   6    -37.9976414 -0.216244E-07  0.552E-04    3.14      36.2  T
   7    -37.9976414 -0.318952E-08  0.215E-04    3.14      93.0  T
     SCC iter.                  ...        0 min,  0.005 sec
     gradient                   ...        0 min,  0.002 sec
 * total energy  :   -37.4652211 Eh     change       -0.1038136E-03 Eh
   gradient norm :     0.0122868 Eh/α   predicted    -0.2354349E-03 ( 126.79%)
   displ. norm   :     0.1384787 α      lambda       -0.4962811E-03
   maximum displ.:     0.0891718 α      in ANC's #1, #4, #3, ...

........................................................................
.............................. CYCLE   18 ..............................
........................................................................

 iter      E             dE          RMSdq      gap      omega  full diag
   1    -38.0044477 -0.380044E+02  0.712E-02    3.15       0.0  T
   2    -38.0044525 -0.478362E-05  0.406E-02    3.15       1.0  T
   3    -38.0044528 -0.224586E-06  0.751E-03    3.15       2.7  T
   4    -38.0044530 -0.201730E-06  0.235E-03    3.15       8.5  T
   5    -38.0044530 -0.327060E-07  0.126E-03    3.15      15.9  T
   6    -38.0044530 -0.745823E-08  0.406E-04    3.15      49.3  T
   7    -38.0044530 -0.144929E-08  0.150E-04    3.15     133.7  T
     SCC iter.                  ...        0 min,  0.006 sec
     gradient                   ...        0 min,  0.002 sec
 * total energy  :   -37.4654713 Eh     change       -0.2501942E-03 Eh
   gradient norm :     0.0039174 Eh/α   predicted    -0.2528994E-03 (   1.08%)
   displ. norm   :     0.3303446 α      lambda       -0.2112096E-03
   maximum displ.:     0.2208180 α      in ANC's #1, #3, #7, ...

........................................................................
.............................. CYCLE   19 ..............................
........................................................................

 iter      E             dE          RMSdq      gap      omega  full diag
   1    -38.0045471 -0.380045E+02  0.936E-02    3.15       0.0  T
   2    -38.0045490 -0.186222E-05  0.547E-02    3.15       1.0  T
   3    -38.0045492 -0.192804E-06  0.514E-03    3.15       3.9  T
   4    -38.0045495 -0.275263E-06  0.210E-03    3.15       9.5  T
   5    -38.0045495 -0.577668E-08  0.107E-03    3.15      18.7  T
   6    -38.0045495 -0.114190E-07  0.252E-04    3.15      79.3  T
   7    -38.0045495 -0.660577E-09  0.996E-05    3.15     200.9  T
     SCC iter.                  ...        0 min,  0.006 sec
     gradient                   ...        0 min,  0.003 sec
 * total energy  :   -37.4656252 Eh     change       -0.1539140E-03 Eh
   gradient norm :     0.0060231 Eh/α   predicted    -0.1171314E-03 ( -23.90%)
   displ. norm   :     0.4810177 α      lambda       -0.2323323E-03
   maximum displ.:     0.3169664 α      in ANC's #1, #3, #7, ...

........................................................................
.............................. CYCLE   20 ..............................
........................................................................

 iter      E             dE          RMSdq      gap      omega  full diag
   1    -37.9997725 -0.379998E+02  0.136E-01    3.15       0.0  T
   2    -37.9997771 -0.454120E-05  0.794E-02    3.15       1.0  T
   3    -37.9997774 -0.377717E-06  0.760E-03    3.15       2.6  T
   4    -37.9997780 -0.519609E-06  0.332E-03    3.15       6.0  T
   5    -37.9997780 -0.659599E-07  0.169E-03    3.15      11.8  T
   6    -37.9997780 -0.180766E-07  0.416E-04    3.15      48.1  T
   7    -37.9997780 -0.133211E-08  0.154E-04    3.15     129.5  T
     SCC iter.                  ...        0 min,  0.006 sec
     gradient                   ...        0 min,  0.003 sec
 * total energy  :   -37.4657169 Eh     change       -0.9171533E-04 Eh
   gradient norm :     0.0107494 Eh/α   predicted    -0.1430445E-03 (  55.97%)
   displ. norm   :     0.1032313 α      lambda       -0.3015201E-03
   maximum displ.:     0.0574945 α      in ANC's #1, #3, #5, ...
 * RMSD in coord.:     0.6956200 α      energy gain  -0.2041029E-01 Eh

generating ANC from model Hessian ...
Using Lindh-Hessian (1995)
 Shifting diagonal of input Hessian by    8.4347513174210451E-003
 Lowest  eigenvalues of input Hessian
    0.000000    0.000000    0.000000    0.000000    0.000000    0.000000
    0.010000    0.010437    0.011736    0.014385    0.017406    0.019060
    0.023101    0.024526    0.026787    0.034757    0.036831    0.049468
 Highest eigenvalues
    1.643943    1.878593    1.933008    2.051346    2.150737    2.381580


........................................................................
.............................. CYCLE   21 ..............................
........................................................................

 iter      E             dE          RMSdq      gap      omega  full diag
   1    -38.0051498 -0.380051E+02  0.451E-02    3.16       0.0  T
   2    -38.0051517 -0.192024E-05  0.257E-02    3.16       1.0  T
   3    -38.0051514  0.316557E-06  0.691E-03    3.16       2.9  T
   4    -38.0051519 -0.535733E-06  0.191E-03    3.16      10.5  T
   5    -38.0051520 -0.475868E-07  0.878E-04    3.16      22.8  T
   6    -38.0051520 -0.139367E-08  0.405E-04    3.16      49.4  T
     SCC iter.                  ...        0 min,  0.006 sec
     gradient                   ...        0 min,  0.003 sec
 * total energy  :   -37.4659059 Eh     change       -0.1889887E-03 Eh
   gradient norm :     0.0071340 Eh/α   predicted     0.0000000E+00 (-100.00%)
   displ. norm   :     0.0690363 α      lambda       -0.1783443E-03
   maximum displ.:     0.0505938 α      in ANC's #6, #5, #2, ...

........................................................................
.............................. CYCLE   22 ..............................
........................................................................

 iter      E             dE          RMSdq      gap      omega  full diag
   1    -38.0054446 -0.380054E+02  0.280E-02    3.16       0.0  T
   2    -38.0054456 -0.103378E-05  0.163E-02    3.15       1.2  T
   3    -38.0054454  0.186239E-06  0.543E-03    3.16       3.7  T
   4    -38.0054457 -0.301951E-06  0.166E-03    3.15      12.0  T
   5    -38.0054458 -0.435216E-07  0.533E-04    3.15      37.5  T
   6    -38.0054458 -0.608573E-09  0.186E-04    3.15     107.6  T
     SCC iter.                  ...        0 min,  0.007 sec
     gradient                   ...        0 min,  0.003 sec
 * total energy  :   -37.4660455 Eh     change       -0.1396105E-03 Eh
   gradient norm :     0.0027728 Eh/α   predicted    -0.8994684E-04 ( -35.57%)
   displ. norm   :     0.2003327 α      lambda       -0.2756599E-03
   maximum displ.:     0.1474167 α      in ANC's #6, #5, #4, ...

........................................................................
.............................. CYCLE   23 ..............................
........................................................................

 iter      E             dE          RMSdq      gap      omega  full diag
   1    -38.0053147 -0.380053E+02  0.556E-02    3.15       0.0  T
   2    -38.0053169 -0.225217E-05  0.329E-02    3.14       1.0  T
   3    -38.0053160  0.906943E-06  0.897E-03    3.15       2.2  T
   4    -38.0053172 -0.124885E-05  0.248E-03    3.15       8.1  T
   5    -38.0053173 -0.932814E-07  0.883E-04    3.15      22.7  T
   6    -38.0053173 -0.179019E-08  0.264E-04    3.15      75.7  T
     SCC iter.                  ...        0 min,  0.006 sec
     gradient                   ...        0 min,  0.003 sec
 * total energy  :   -37.4662636 Eh     change       -0.2180849E-03 Eh
   gradient norm :     0.0040869 Eh/α   predicted    -0.1433750E-03 ( -34.26%)
   displ. norm   :     0.4309562 α      lambda       -0.4391051E-03
   maximum displ.:     0.3166929 α      in ANC's #6, #5, #4, ...

........................................................................
.............................. CYCLE   24 ..............................
........................................................................

 iter      E             dE          RMSdq      gap      omega  full diag
   1    -38.0017211 -0.380017E+02  0.111E-01    3.14       0.0  T
   2    -38.0017257 -0.462884E-05  0.655E-02    3.14       1.0  T
   3    -38.0017241  0.154202E-05  0.117E-02    3.14       1.7  T
   4    -38.0017265 -0.238097E-05  0.370E-03    3.14       5.4  T
   5    -38.0017267 -0.139112E-06  0.174E-03    3.14      11.5  T
   6    -38.0017267 -0.898252E-08  0.470E-04    3.14      42.6  T
   7    -38.0017267 -0.196446E-08  0.183E-04    3.14     109.2  T
     SCC iter.                  ...        0 min,  0.008 sec
     gradient                   ...        0 min,  0.003 sec
 * total energy  :   -37.4665125 Eh     change       -0.2489527E-03 Eh
   gradient norm :     0.0115833 Eh/α   predicted    -0.2603307E-03 (   4.57%)
   displ. norm   :     0.0603180 α      lambda       -0.2178359E-03
   maximum displ.:     0.0357036 α      in ANC's #5, #6, #2, ...

........................................................................
.............................. CYCLE   25 ..............................
........................................................................

 iter      E             dE          RMSdq      gap      omega  full diag
   1    -38.0040021 -0.380040E+02  0.280E-02    3.14       0.0  T
   2    -38.0040031 -0.105622E-05  0.165E-02    3.14       1.2  T
   3    -38.0040029  0.211692E-06  0.516E-03    3.14       3.9  T
   4    -38.0040032 -0.315933E-06  0.147E-03    3.14      13.6  T
   5    -38.0040033 -0.377314E-07  0.503E-04    3.14      39.7  T
   6    -38.0040033 -0.431861E-09  0.209E-04    3.14      95.7  T
     SCC iter.                  ...        0 min,  0.007 sec
     gradient                   ...        0 min,  0.003 sec
 * total energy  :   -37.4666892 Eh     change       -0.1766646E-03 Eh
   gradient norm :     0.0068817 Eh/α   predicted    -0.1093248E-03 ( -38.12%)
   displ. norm   :     0.3800622 α      lambda       -0.4434665E-03
   maximum displ.:     0.2540319 α      in ANC's #6, #5, #2, ...

........................................................................
.............................. CYCLE   26 ..............................
........................................................................

 iter      E             dE          RMSdq      gap      omega  full diag
   1    -38.0040874 -0.380041E+02  0.961E-02    3.15       0.0  T
   2    -38.0040907 -0.327894E-05  0.572E-02    3.16       1.0  T
   3    -38.0040894  0.123573E-05  0.968E-03    3.15       2.1  T
   4    -38.0040913 -0.183626E-05  0.307E-03    3.16       6.5  T
   5    -38.0040914 -0.106537E-06  0.145E-03    3.16      13.8  T
   6    -38.0040914 -0.134770E-07  0.359E-04    3.16      55.8  T
   7    -38.0040914 -0.556824E-09  0.148E-04    3.16     135.3  T
     SCC iter.                  ...        0 min,  0.009 sec
     gradient                   ...        0 min,  0.003 sec
 * total energy  :   -37.4669120 Eh     change       -0.2227934E-03 Eh
   gradient norm :     0.0110005 Eh/α   predicted    -0.2537628E-03 (  13.90%)
   displ. norm   :     0.0867036 α      lambda       -0.3572102E-03
   maximum displ.:     0.0427721 α      in ANC's #10, #2, #4, ...

........................................................................
.............................. CYCLE   27 ..............................
........................................................................

 iter      E             dE          RMSdq      gap      omega  full diag
   1    -38.0090186 -0.380090E+02  0.600E-02    3.16       0.0  T
   2    -38.0090244 -0.582253E-05  0.344E-02    3.16       1.0  T
   3    -38.0090241  0.274368E-06  0.105E-02    3.16       1.9  T
   4    -38.0090248 -0.711059E-06  0.318E-03    3.16       6.3  T
   5    -38.0090250 -0.145488E-06  0.138E-03    3.16      14.5  T
   6    -38.0090250 -0.402502E-08  0.555E-04    3.16      36.0  T
   7    -38.0090250 -0.161391E-08  0.135E-04    3.16     148.6  T
     SCC iter.                  ...        0 min,  0.009 sec
     gradient                   ...        0 min,  0.003 sec
 * total energy  :   -37.4670203 Eh     change       -0.1082492E-03 Eh
   gradient norm :     0.0078195 Eh/α   predicted    -0.1799482E-03 (  66.24%)
   displ. norm   :     0.1433050 α      lambda       -0.1659619E-03
   maximum displ.:     0.0979794 α      in ANC's #6, #5, #2, ...

........................................................................
.............................. CYCLE   28 ..............................
........................................................................

 iter      E             dE          RMSdq      gap      omega  full diag
   1    -38.0068203 -0.380068E+02  0.404E-02    3.16       0.0  T
   2    -38.0068213 -0.101781E-05  0.239E-02    3.16       1.0  T
   3    -38.0068210  0.287359E-06  0.509E-03    3.16       3.9  T
   4    -38.0068214 -0.402281E-06  0.174E-03    3.16      11.5  T
   5    -38.0068215 -0.464982E-07  0.684E-04    3.16      29.3  T
   6    -38.0068215 -0.876987E-09  0.181E-04    3.16     110.2  T
     SCC iter.                  ...        0 min,  0.008 sec
     gradient                   ...        0 min,  0.003 sec
 * total energy  :   -37.4671435 Eh     change       -0.1232043E-03 Eh
   gradient norm :     0.0063334 Eh/α   predicted    -0.8468633E-04 ( -31.26%)
   displ. norm   :     0.1964908 α      lambda       -0.1447299E-03
   maximum displ.:     0.1295894 α      in ANC's #6, #5, #2, ...

........................................................................
.............................. CYCLE   29 ..............................
........................................................................

 iter      E             dE          RMSdq      gap      omega  full diag
   1    -38.0044810 -0.380045E+02  0.548E-02    3.15       0.0  T
   2    -38.0044831 -0.205095E-05  0.326E-02    3.15       1.0  T
   3    -38.0044822  0.874511E-06  0.806E-03    3.15       2.5  T
   4    -38.0044834 -0.114736E-05  0.248E-03    3.15       8.1  T
   5    -38.0044835 -0.104302E-06  0.899E-04    3.15      22.3  T
   6    -38.0044835 -0.110480E-08  0.198E-04    3.15     100.9  T
     SCC iter.                  ...        0 min,  0.008 sec
     gradient                   ...        0 min,  0.003 sec
 * total energy  :   -37.4672179 Eh     change       -0.7449046E-04 Eh
   gradient norm :     0.0076795 Eh/α   predicted    -0.7515938E-04 (   0.90%)
   displ. norm   :     0.0227412 α      lambda       -0.8789759E-04
   maximum displ.:     0.0108378 α      in ANC's #14, #20, #4, ...

........................................................................
.............................. CYCLE   30 ..............................
........................................................................

 iter      E             dE          RMSdq      gap      omega  full diag
   1    -38.0052928 -0.380053E+02  0.180E-02    3.15       0.0  T
   2    -38.0052941 -0.122194E-05  0.103E-02    3.15       1.9  T
   3    -38.0052941 -0.249710E-07  0.474E-03    3.15       4.2  T
   4    -38.0052942 -0.836704E-07  0.174E-03    3.15      11.5  T
   5    -38.0052942 -0.511113E-07  0.508E-04    3.15      39.3  T
   6    -38.0052942 -0.832848E-09  0.183E-04    3.15     109.1  T
     SCC iter.                  ...        0 min,  0.007 sec
     gradient                   ...        0 min,  0.003 sec
 * total energy  :   -37.4672743 Eh     change       -0.5638290E-04 Eh
   gradient norm :     0.0041458 Eh/α   predicted    -0.4397396E-04 ( -22.01%)
   displ. norm   :     0.1046645 α      lambda       -0.6936016E-04
   maximum displ.:     0.0684892 α      in ANC's #6, #5, #2, ...

........................................................................
.............................. CYCLE   31 ..............................
........................................................................

 iter      E             dE          RMSdq      gap      omega  full diag
   1    -38.0059942 -0.380060E+02  0.282E-02    3.15       0.0  T
   2    -38.0059945 -0.337108E-06  0.167E-02    3.15       1.2  T
   3    -38.0059945  0.264601E-07  0.248E-03    3.15       8.1  T
   4    -38.0059945 -0.710864E-07  0.834E-04    3.15      24.0  T
   5    -38.0059945 -0.741208E-08  0.415E-04    3.15      48.2  T
     SCC iter.                  ...        0 min,  0.006 sec
     gradient                   ...        0 min,  0.003 sec
 * total energy  :   -37.4673280 Eh     change       -0.5369033E-04 Eh
   gradient norm :     0.0029261 Eh/α   predicted    -0.3506135E-04 ( -34.70%)
   displ. norm   :     0.1710869 α      lambda       -0.7803506E-04
   maximum displ.:     0.1171413 α      in ANC's #6, #5, #7, ...

........................................................................
.............................. CYCLE   32 ..............................
........................................................................

 iter      E             dE          RMSdq      gap      omega  full diag
   1    -38.0064644 -0.380065E+02  0.436E-02    3.15       0.0  T
   2    -38.0064646 -0.192865E-06  0.260E-02    3.15       1.0  T
   3    -38.0064645  0.285429E-07  0.231E-03    3.15       8.7  T
   4    -38.0064646 -0.946612E-07  0.898E-04    3.15      22.3  T
   5    -38.0064646 -0.215534E-08  0.456E-04    3.15      43.9  T
     SCC iter.                  ...        0 min,  0.006 sec
     gradient                   ...        0 min,  0.003 sec
 * total energy  :   -37.4673801 Eh     change       -0.5208733E-04 Eh
   gradient norm :     0.0028571 Eh/α   predicted    -0.4016490E-04 ( -22.89%)
   displ. norm   :     0.0852096 α      lambda       -0.4284842E-04
   maximum displ.:     0.0564154 α      in ANC's #6, #7, #5, ...

........................................................................
.............................. CYCLE   33 ..............................
........................................................................

 iter      E             dE          RMSdq      gap      omega  full diag
   1    -38.0075959 -0.380076E+02  0.225E-02    3.15       0.0  T
   2    -38.0075961 -0.242020E-06  0.133E-02    3.15       1.5  T
   3    -38.0075960  0.136442E-06  0.284E-03    3.15       7.0  T
   4    -38.0075961 -0.170813E-06  0.772E-04    3.15      25.9  T
   5    -38.0075962 -0.110956E-07  0.324E-04    3.15      61.7  T
     SCC iter.                  ...        0 min,  0.006 sec
     gradient                   ...        0 min,  0.003 sec
 * total energy  :   -37.4674084 Eh     change       -0.2829893E-04 Eh
   gradient norm :     0.0020841 Eh/α   predicted    -0.2158149E-04 ( -23.74%)
   displ. norm   :     0.1413240 α      lambda       -0.3423422E-04
   maximum displ.:     0.0943729 α      in ANC's #6, #5, #7, ...

........................................................................
.............................. CYCLE   34 ..............................
........................................................................

 iter      E             dE          RMSdq      gap      omega  full diag
   1    -38.0068694 -0.380069E+02  0.311E-02    3.15       0.0  T
   2    -38.0068696 -0.160603E-06  0.186E-02    3.15       1.1  T
   3    -38.0068694  0.109930E-06  0.247E-03    3.15       8.1  T
   4    -38.0068696 -0.148651E-06  0.707E-04    3.15      28.3  T
   5    -38.0068696 -0.559809E-08  0.325E-04    3.15      61.6  T
     SCC iter.                  ...        0 min,  0.007 sec
     gradient                   ...        0 min,  0.003 sec
 * total energy  :   -37.4674254 Eh     change       -0.1698431E-04 Eh
   gradient norm :     0.0027217 Eh/α   predicted    -0.1747656E-04 (   2.90%)
   displ. norm   :     0.0538346 α      lambda       -0.3391044E-04
   maximum displ.:     0.0291257 α      in ANC's #2, #3, #7, ...

........................................................................
.............................. CYCLE   35 ..............................
........................................................................

 iter      E             dE          RMSdq      gap      omega  full diag
   1    -38.0074522 -0.380075E+02  0.197E-02    3.15       0.0  T
   2    -38.0074524 -0.232985E-06  0.115E-02    3.15       1.7  T
   3    -38.0074524  0.609017E-07  0.236E-03    3.15       8.5  T
   4    -38.0074525 -0.925929E-07  0.731E-04    3.15      27.3  T
   5    -38.0074525 -0.836483E-08  0.328E-04    3.15      60.9  T
     SCC iter.                  ...        0 min,  0.007 sec
     gradient                   ...        0 min,  0.003 sec
 * total energy  :   -37.4674471 Eh     change       -0.2166141E-04 Eh
   gradient norm :     0.0011418 Eh/α   predicted    -0.1700693E-04 ( -21.49%)
   displ. norm   :     0.1182422 α      lambda       -0.1826908E-04
   maximum displ.:     0.0691120 α      in ANC's #3, #2, #7, ...

........................................................................
.............................. CYCLE   36 ..............................
........................................................................

 iter      E             dE          RMSdq      gap      omega  full diag
   1    -38.0072088 -0.380072E+02  0.320E-02    3.15       0.0  T
   2    -38.0072089 -0.141236E-06  0.189E-02    3.15       1.1  T
   3    -38.0072088  0.898738E-07  0.233E-03    3.15       8.6  T
   4    -38.0072090 -0.132423E-06  0.708E-04    3.15      28.3  T
   5    -38.0072090 -0.427696E-08  0.347E-04    3.15      57.6  T
     SCC iter.                  ...        0 min,  0.006 sec
     gradient                   ...        0 min,  0.003 sec
 * total energy  :   -37.4674652 Eh     change       -0.1810351E-04 Eh
   gradient norm :     0.0013951 Eh/α   predicted    -0.9196981E-05 ( -49.20%)
   displ. norm   :     0.1248513 α      lambda       -0.1834835E-04
   maximum displ.:     0.1009572 α      in ANC's #3, #2, #1, ...

........................................................................
.............................. CYCLE   37 ..............................
........................................................................

 iter      E             dE          RMSdq      gap      omega  full diag
   1    -38.0071666 -0.380072E+02  0.441E-02    3.15       0.0  T
   2    -38.0071669 -0.235700E-06  0.260E-02    3.15       1.0  T
   3    -38.0071667  0.130206E-06  0.307E-03    3.15       6.5  T
   4    -38.0071669 -0.211070E-06  0.968E-04    3.15      20.7  T
   5    -38.0071669 -0.630367E-08  0.464E-04    3.15      43.1  T
     SCC iter.                  ...        0 min,  0.006 sec
     gradient                   ...        0 min,  0.003 sec
 * total energy  :   -37.4674839 Eh     change       -0.1872548E-04 Eh
   gradient norm :     0.0017105 Eh/α   predicted    -0.9238267E-05 ( -50.66%)
   displ. norm   :     0.1558874 α      lambda       -0.1856230E-04
   maximum displ.:     0.1340972 α      in ANC's #3, #2, #1, ...

........................................................................
.............................. CYCLE   38 ..............................
........................................................................

 iter      E             dE          RMSdq      gap      omega  full diag
   1    -38.0067617 -0.380068E+02  0.561E-02    3.15       0.0  T
   2    -38.0067619 -0.295201E-06  0.330E-02    3.15       1.0  T
   3    -38.0067617  0.240914E-06  0.386E-03    3.15       5.2  T
   4    -38.0067621 -0.370584E-06  0.106E-03    3.15      18.9  T
   5    -38.0067621 -0.459769E-08  0.539E-04    3.15      37.1  T
   6    -38.0067621 -0.108425E-08  0.172E-04    3.15     116.3  T
     SCC iter.                  ...        0 min,  0.008 sec
     gradient                   ...        0 min,  0.003 sec
 * total energy  :   -37.4674950 Eh     change       -0.1113658E-04 Eh
   gradient norm :     0.0015828 Eh/α   predicted    -0.9383122E-05 ( -15.75%)
   displ. norm   :     0.0265049 α      lambda       -0.7185982E-05
   maximum displ.:     0.0123406 α      in ANC's #5, #3, #6, ...

........................................................................
.............................. CYCLE   39 ..............................
........................................................................

 iter      E             dE          RMSdq      gap      omega  full diag
   1    -38.0071283 -0.380071E+02  0.107E-02    3.15       0.0  T
   2    -38.0071284 -0.356543E-07  0.627E-03    3.15       3.2  T
   3    -38.0071283  0.134251E-07  0.108E-03    3.15      18.5  T
   4    -38.0071284 -0.218576E-07  0.264E-04    3.15      75.7  T
   5    -38.0071284 -0.503171E-09  0.152E-04    3.15     131.3  T
     SCC iter.                  ...        0 min,  0.006 sec
     gradient                   ...        0 min,  0.003 sec
 * total energy  :   -37.4675002 Eh     change       -0.5232215E-05 Eh
   gradient norm :     0.0008618 Eh/α   predicted    -0.3605118E-05 ( -31.10%)
   displ. norm   :     0.0275062 α      lambda       -0.1868711E-05
   maximum displ.:     0.0124087 α      in ANC's #5, #6, #3, ...

........................................................................
.............................. CYCLE   40 ..............................
........................................................................

 iter      E             dE          RMSdq      gap      omega  full diag
   1    -38.0073837 -0.380074E+02  0.793E-03    3.15       0.0  T
   2    -38.0073837 -0.107418E-07  0.470E-03    3.15       4.3  T
   3    -38.0073837  0.322250E-08  0.567E-04    3.15      35.3  T
   4    -38.0073837 -0.525136E-08  0.185E-04    3.15     108.2  T
     SCC iter.                  ...        0 min,  0.005 sec
     gradient                   ...        0 min,  0.003 sec
 * total energy  :   -37.4675011 Eh     change       -0.8148814E-06 Eh
   gradient norm :     0.0008014 Eh/α   predicted    -0.9356794E-06 (  14.82%)
   displ. norm   :     0.0092759 α      lambda       -0.1074187E-05
   maximum displ.:     0.0051905 α      in ANC's #1, #7, #6, ...

   *** GEOMETRY OPTIMIZATION CONVERGED AFTER 40 ITERATIONS ***

------------------------------------------------------------------------
 total energy gain   :        -0.0221945 Eh      -13.9272 kcal/mol
 total RMSD          :         0.9272486 a0        0.4907 Å
 total power (kW/mol):        -1.4567881 (step) -123.8339 (real)
------------------------------------------------------------------------

 ANCopt (total)                0 d,  0 h,  0 min,  0.471 sec
 optimizer setup                ...        0 min,  0.001 sec (  0.274%)
 model hessian                  ...        0 min,  0.038 sec (  8.035%)
 ANC generation                 ...        0 min,  0.002 sec (  0.462%)
 coordinate transformation      ...        0 min,  0.000 sec (  0.078%)
 single point calculation       ...        0 min,  0.407 sec ( 86.418%)
 optimization log               ...        0 min,  0.011 sec (  2.420%)
 hessian update                 ...        0 min,  0.001 sec (  0.145%)
 rational function              ...        0 min,  0.007 sec (  1.453%)

================
 final structure:
================
25
 xtb: 6.6.0 (conda-forge)
C           -1.65601798934262        1.94238020720224        0.40092276031007
N           -1.54294889578459        0.52113600817579        0.22576681756765
C           -0.47402993527441       -0.22953720604479        0.84069605994544
C           -0.90948804552409       -1.69612850215157        0.62885916153886
C           -1.84789949760774       -1.63652724787717       -0.57367687906773
C           -2.33089892307129       -0.19368378084988       -0.60808443124563
O           -3.24661281780216        0.25350752667988       -1.25921623908381
C            0.86872541984069        0.04893127663811        0.20661279143029
C            0.99328493315744        0.35386924390488       -1.14610375396828
N            2.15035026172444        0.57193185465622       -1.74245098655531
C            3.25446129962712        0.49644727237126       -1.02087074731553
C            3.25418671407543        0.20322064051742        0.33482348134396
C            2.03756236017527       -0.02285196015327        0.95544340611833
H           -1.81509267299980        2.18600687807542        1.45437408993995
H           -2.51269419566980        2.27619118259445       -0.18165751695917
H           -0.75660145513879        2.45238780851840        0.04860204147549
H           -0.41585647500199        0.01725106065654        1.90930851966564
H           -0.05271022638504       -2.34725459790984        0.46270006270417
H           -1.44586188462108       -2.04980061073691        1.50947888430580
H           -1.32739736769238       -1.84437437928767       -1.51006394670428
H           -2.69092321726527       -2.32055420909815       -0.49926044420651
H            0.12044262786739        0.43387192276879       -1.78127897174031
H            4.17629959999228        0.68145364864264       -1.55584465249671
H            4.17814519021599        0.15570132863665        0.88993456233013
H            1.99167519250501       -0.25347536592923        2.01118593066749

 Bond Distances (Angstroems)
 ---------------------------
C1-N2=1.4365         C1-H14=1.0929        C1-H15=1.0885        C1-H16=1.0923        N2-C1=1.4365         N2-C3=1.4437         
N2-C6=1.3517         C3-N2=1.4437         C3-C4=1.5445         C3-C8=1.5108         C3-H17=1.0983        C4-C3=1.5445         
C4-C5=1.5265         C4-H18=1.0889        C4-H19=1.0901        C5-C4=1.5265         C5-C6=1.5219         C5-H20=1.0913        
C5-H21=1.0882        C6-N2=1.3517         C6-C5=1.5219         C6-O7=1.2093         O7-C6=1.2093         C8-C3=1.5108         
C8-C9=1.3922         C8-C13=1.3900        C9-C8=1.3922         C9-N10=1.3198        C9-H22=1.0825        N10-C9=1.3198        
N10-C11=1.3212       C11-N10=1.3212       C11-C12=1.3870       C11-H23=1.0818       C12-C11=1.3870       C12-C13=1.3844       
C12-H24=1.0789       C13-C8=1.3900        C13-C12=1.3844       C13-H25=1.0816       H14-C1=1.0929        H15-C1=1.0885        
H16-C1=1.0923        H17-C3=1.0983        H18-C4=1.0889        H19-C4=1.0901        H20-C5=1.0913        H21-C5=1.0882        
H22-C9=1.0825        H23-C11=1.0818       H24-C12=1.0789       H25-C13=1.0816       
 C  H  Rav=1.0879 sigma=0.0055  Rmin=1.0789  Rmax=1.0983    12
 C  C  Rav=1.4572 sigma=0.0693  Rmin=1.3844  Rmax=1.5445     8
 N  C  Rav=1.3746 sigma=0.0547  Rmin=1.3198  Rmax=1.4437     5
 O  C  Rav=1.2093 sigma=0.0000  Rmin=1.2093  Rmax=1.2093     1

 selected bond angles (degree)
 --------------------
H14-C1-N2=110.46               H15-C1-N2=107.47               H15-C1-H14=109.45              H16-C1-N2=110.97               
H16-C1-H14=109.07              H16-C1-H15=109.40              C3-N2-C1=121.39                C6-N2-C1=123.54                
C6-N2-C3=114.80                C4-C3-N2=103.10                C8-C3-N2=112.55                C8-C3-C4=111.59                
H17-C3-N2=109.68               H17-C3-C4=111.21               H17-C3-C8=108.65               C5-C4-C3=104.14                
H18-C4-C3=111.53               H18-C4-C5=112.76               H19-C4-C3=109.63               H19-C4-C5=110.28               
H19-C4-H18=108.45              C6-C5-C4=104.47                H20-C5-C4=112.04               H20-C5-C6=108.21               
H21-C5-C4=113.44               H21-C5-C6=110.59               H21-C5-H20=107.97              C5-C6-N2=107.60                
O7-C6-N2=125.31                O7-C6-C5=127.09                C9-C8-C3=121.85                C13-C8-C3=120.78               
C13-C8-C9=117.36               N10-C9-C8=123.62               H22-C9-C8=120.94               H22-C9-N10=115.44              
C11-N10-C9=118.45              

 selected dihedral angles (degree)
 ---------------------------------
C3-N2-C1-H14=297.47           C3-N2-C1-H15=178.13           C3-N2-C1-H16= 58.56           C6-N2-C1-H14=123.81           
C6-N2-C1-H15=  4.47           C6-N2-C1-H16=244.90           C4-C3-N2-C1=168.95            C4-C3-N2-C6=343.13            
C8-C3-N2-C1=289.33            C8-C3-N2-C6=103.51            H17-C3-N2-C1= 50.41           H17-C3-N2-C6=224.59           
C5-C4-C3-N2= 23.47            C5-C4-C3-C8=262.44            C5-C4-C3-H17=140.93           H18-C4-C3-N2=145.35           
H18-C4-C3-C8= 24.32           H18-C4-C3-H17=262.82          H19-C4-C3-N2=265.48           H19-C4-C3-C8=144.45           
H19-C4-C3-H17= 22.94          C6-C5-C4-C3=337.70            C6-C5-C4-H18=216.64           C6-C5-C4-H19= 95.25           
H20-C5-C4-C3= 94.62           H20-C5-C4-H18=333.55          H20-C5-C4-H19=212.17          H21-C5-C4-C3=217.19           
H21-C5-C4-H18= 96.12          H21-C5-C4-H19=334.73          C5-C6-N2-C1=176.69            C5-C6-N2-C3=  2.65            
O7-C6-N2-C1=356.95            O7-C6-N2-C3=182.91            N2-C6-C5-C4= 13.01            N2-C6-C5-H20=253.48           
N2-C6-C5-H21=135.41           O7-C6-C5-C4=192.75            O7-C6-C5-H20= 73.21           O7-C6-C5-H21=315.15           
C9-C8-C3-N2=327.79            C9-C8-C3-C4= 83.15            C9-C8-C3-H17=206.12           C13-C8-C3-N2=149.36           
C13-C8-C3-C4=264.71           C13-C8-C3-H17= 27.69          N10-C9-C8-C3=181.66           N10-C9-C8-C13=  0.14          
H22-C9-C8-C3=  2.11           H22-C9-C8-C13=180.59          C11-N10-C9-C8=  0.08          C11-N10-C9-H22=179.65         
           -------------------------------------------------
          |                Final Singlepoint                |
           -------------------------------------------------

          ...................................................
          :                      SETUP                      :
          :.................................................:
          :  # basis functions                  64          :
          :  # atomic orbitals                  64          :
          :  # shells                           38          :
          :  # electrons                        68          :
          :  max. iterations                   250          :
          :  Hamiltonian                  GFN2-xTB          :
          :  restarted?                      false          :
          :  GBSA solvation                  false          :
          :  PC potential                    false          :
          :  electronic temp.          300.0000000     K    :
          :  accuracy                    1.0000000          :
          :  -> integral cutoff          0.2500000E+02      :
          :  -> integral neglect         0.1000000E-07      :
          :  -> SCF convergence          0.1000000E-05 Eh   :
          :  -> wf. convergence          0.1000000E-03 e    :
          :  Broyden damping             0.4000000          :
          ...................................................

 iter      E             dE          RMSdq      gap      omega  full diag
   1    -38.0073837 -0.380074E+02  0.845E-05    3.15       0.0  T
   2    -38.0073837 -0.182681E-10  0.501E-05    3.15     399.0  T
   3    -38.0073837 -0.625278E-11  0.309E-05    3.15     647.6  T

   *** convergence criteria satisfied after 3 iterations ***

         #    Occupation            Energy/Eh            Energy/eV
      -------------------------------------------------------------
         1        2.0000           -0.6960391             -18.9402
       ...           ...                  ...                  ...
        28        2.0000           -0.4567255             -12.4281
        29        2.0000           -0.4483337             -12.1998
        30        2.0000           -0.4439430             -12.0803
        31        2.0000           -0.4229159             -11.5081
        32        2.0000           -0.3952589             -10.7555
        33        2.0000           -0.3918089             -10.6617
        34        2.0000           -0.3749935             -10.2041 (HOMO)
        35                         -0.2592779              -7.0553 (LUMO)
        36                         -0.2482726              -6.7558
        37                         -0.2014932              -5.4829
        38                         -0.1245841              -3.3901
        39                         -0.0035831              -0.0975
       ...                                ...                  ...
        64                          0.6714142              18.2701
      -------------------------------------------------------------
                  HL-Gap            0.1157156 Eh            3.1488 eV
             Fermi-level           -0.3171357 Eh           -8.6297 eV

 SCC (total)                   0 d,  0 h,  0 min,  0.009 sec
 SCC setup                      ...        0 min,  0.000 sec (  1.432%)
 Dispersion                     ...        0 min,  0.000 sec (  1.927%)
 classical contributions        ...        0 min,  0.000 sec (  0.524%)
 integral evaluation            ...        0 min,  0.001 sec ( 12.307%)
 iterations                     ...        0 min,  0.004 sec ( 44.616%)
 molecular gradient             ...        0 min,  0.003 sec ( 36.743%)
 printout                       ...        0 min,  0.000 sec (  2.232%)

         :::::::::::::::::::::::::::::::::::::::::::::::::::::
         ::                     SUMMARY                     ::
         :::::::::::::::::::::::::::::::::::::::::::::::::::::
         :: total energy             -37.467501064984 Eh    ::
         :: gradient norm              0.000802217252 Eh/a0 ::
         :: HOMO-LUMO gap              3.148782493505 eV    ::
         ::.................................................::
         :: SCC energy               -38.007383700312 Eh    ::
         :: -> isotropic ES            0.044590081078 Eh    ::
         :: -> anisotropic ES          0.003755124903 Eh    ::
         :: -> anisotropic XC          0.022473344644 Eh    ::
         :: -> dispersion             -0.023774905004 Eh    ::
         :: repulsion energy           0.539668440273 Eh    ::
         :: add. restraining           0.000000000000 Eh    ::
         :: total charge              -0.000000000000 e     ::
         :::::::::::::::::::::::::::::::::::::::::::::::::::::

           -------------------------------------------------
          |                Property Printout                |
           -------------------------------------------------

    * Orbital Energies and Occupations

         #    Occupation            Energy/Eh            Energy/eV
      -------------------------------------------------------------
         1        2.0000           -0.6960391             -18.9402
       ...           ...                  ...                  ...
        22        2.0000           -0.5004574             -13.6181
        23        2.0000           -0.4892633             -13.3135
        24        2.0000           -0.4840100             -13.1706
        25        2.0000           -0.4827149             -13.1353
        26        2.0000           -0.4782204             -13.0130
        27        2.0000           -0.4738189             -12.8933
        28        2.0000           -0.4567255             -12.4281
        29        2.0000           -0.4483337             -12.1998
        30        2.0000           -0.4439430             -12.0803
        31        2.0000           -0.4229159             -11.5081
        32        2.0000           -0.3952589             -10.7555
        33        2.0000           -0.3918089             -10.6617
        34        2.0000           -0.3749935             -10.2041 (HOMO)
        35                         -0.2592779              -7.0553 (LUMO)
        36                         -0.2482726              -6.7558
        37                         -0.2014932              -5.4829
        38                         -0.1245841              -3.3901
        39                         -0.0035831              -0.0975
        40                          0.0393999               1.0721
        41                          0.0677400               1.8433
        42                          0.0754230               2.0524
        43                          0.0904504               2.4613
        44                          0.1082631               2.9460
        45                          0.1208948               3.2897
       ...                                ...                  ...
        64                          0.6714142              18.2701
      -------------------------------------------------------------
                  HL-Gap            0.1157156 Eh            3.1488 eV
             Fermi-level           -0.3171357 Eh           -8.6297 eV

     #   Z          covCN         q      C6AA      α(0)
     1   6 C        3.692    -0.043    21.528     6.639
     2   7 N        2.763    -0.101    23.220     7.157
     3   6 C        3.830     0.034    19.985     6.361
     4   6 C        3.829    -0.063    21.680     6.625
     5   6 C        3.831    -0.091    22.206     6.705
     6   6 C        2.792     0.271    22.430     7.758
     7   8 O        0.857    -0.436    22.410     6.347
     8   6 C        2.967    -0.008    28.221     8.714
     9   6 C        2.916     0.056    26.749     8.481
    10   7 N        1.836    -0.215    26.515     7.631
    11   6 C        2.913     0.058    26.701     8.473
    12   6 C        2.913    -0.038    28.949     8.823
    13   6 C        2.933    -0.020    28.507     8.756
    14   1 H        0.924     0.046     2.373     2.409
    15   1 H        0.925     0.084     1.943     2.180
    16   1 H        0.924     0.045     2.379     2.412
    17   1 H        0.923     0.041     2.436     2.441
    18   1 H        0.925     0.046     2.376     2.411
    19   1 H        0.925     0.047     2.352     2.398
    20   1 H        0.924     0.062     2.179     2.308
    21   1 H        0.925     0.064     2.156     2.296
    22   1 H        0.925     0.047     2.363     2.404
    23   1 H        0.925     0.043     2.409     2.427
    24   1 H        0.926     0.039     2.457     2.451
    25   1 H        0.925     0.033     2.542     2.493

 Mol. C6AA /au·bohr⁶  :       6796.440142
 Mol. C8AA /au·bohr⁸  :     158155.121850
 Mol. α(0) /au        :        127.099821


Wiberg/Mayer (AO) data.
largest (>0.10) Wiberg bond orders for each atom

 ---------------------------------------------------------------------------
     #   Z sym  total        # sym  WBO       # sym  WBO       # sym  WBO
 ---------------------------------------------------------------------------
     1   6 C    3.969 --     2 N    1.002    14 H    0.977    16 H    0.976
                            15 H    0.975
     2   7 N    3.489 --     6 C    1.232     1 C    1.002     3 C    0.983
                             7 O    0.195
     3   6 C    3.976 --     8 C    0.987     2 N    0.983     4 C    0.969
                            17 H    0.958
     4   6 C    3.995 --     5 C    1.009    19 H    0.980    18 H    0.979
                             3 C    0.969
     5   6 C    3.995 --     4 C    1.009    21 H    0.968    20 H    0.959
                             6 C    0.958
     6   6 C    3.952 --     7 O    1.691     2 N    1.232     5 C    0.958
     7   8 O    2.014 --     6 C    1.691     2 N    0.195
     8   6 C    3.987 --    13 C    1.414     9 C    1.396     3 C    0.987
                            11 C    0.113
     9   6 C    3.982 --    10 N    1.446     8 C    1.396    22 H    0.961
                            12 C    0.115
    10   7 N    3.067 --     9 C    1.446    11 C    1.440    13 C    0.102
    11   6 C    3.981 --    10 N    1.440    12 C    1.422    23 H    0.964
                             8 C    0.113
    12   6 C    3.991 --    13 C    1.448    11 C    1.422    24 H    0.970
                             9 C    0.115
    13   6 C    3.991 --    12 C    1.448     8 C    1.414    25 H    0.968
                            10 N    0.102
    14   1 H    0.998 --     1 C    0.977
    15   1 H    0.993 --     1 C    0.975
    16   1 H    0.998 --     1 C    0.976
    17   1 H    0.998 --     3 C    0.958
    18   1 H    0.998 --     4 C    0.979
    19   1 H    0.997 --     4 C    0.980
    20   1 H    0.996 --     5 C    0.959
    21   1 H    0.995 --     5 C    0.968
    22   1 H    0.998 --     9 C    0.961
    23   1 H    0.997 --    11 C    0.964
    24   1 H    0.998 --    12 C    0.970
    25   1 H    0.999 --    13 C    0.968
 ---------------------------------------------------------------------------

Topologies differ in total number of bonds
Writing topology from bond orders to xtbtopo.mol

molecular dipole:
                 x           y           z       tot (Debye)
 q only:        1.089      -0.284       1.236
   full:        1.278      -0.441       1.760       5.641
molecular quadrupole (traceless):
                xx          xy          yy          xz          yz          zz
 q only:       -7.949       1.296       8.032      -5.164       1.794      -0.083
  q+dip:       -7.239       2.125       6.536      -4.740       2.330       0.704
   full:       -8.253       1.839       9.159      -4.866       3.040      -0.905

           -------------------------------------------------
          |                Geometry Summary                 |
           -------------------------------------------------

      molecular mass/u    :      176.2154593
   center of mass at/Å    :       -0.0322233       0.0563761      -0.2178437
  moments of inertia/u·Å² :        0.3047972E+03   0.9416559E+03   0.9799620E+03
rotational constants/cm⁻¹ :        0.5530770E-01   0.1790211E-01   0.1720233E-01

 * 23 selected distances

     #   Z          #   Z                                           value/Å
     1   6 C        2   7 N                                       1.4364539
     2   7 N        3   6 C                                       1.4436885
     4   6 C        5   6 C                                       1.5265195 (max)
     2   7 N        6   6 C                                       1.3517177
     6   6 C        7   8 O                                       1.2093324
     8   6 C        9   6 C                                       1.3922445
     9   6 C       10   7 N                                       1.3198416
    10   7 N       11   6 C                                       1.3211501
    11   6 C       12   6 C                                       1.3870433
     8   6 C       13   6 C                                       1.3899929
    12   6 C       13   6 C                                       1.3843602
     1   6 C       14   1 H                                       1.0928946
     1   6 C       15   1 H                                       1.0884502
     1   6 C       16   1 H                                       1.0923314
     3   6 C       17   1 H                                       1.0982811
     4   6 C       18   1 H                                       1.0888721
     4   6 C       19   1 H                                       1.0900790
     5   6 C       20   1 H                                       1.0913037
     5   6 C       21   1 H                                       1.0881727
     9   6 C       22   1 H                                       1.0824518
    11   6 C       23   1 H                                       1.0817627
    12   6 C       24   1 H                                       1.0789374 (min)
    13   6 C       25   1 H                                       1.0816124

 * 4 distinct bonds (by element types)

   Z      Z             #   av. dist./Å        max./Å        min./Å
   1 H    6 C          12     1.0879291     1.0982811     1.0789374
   6 C    6 C           5     1.4160321     1.5265195     1.3843602
   6 C    7 N           5     1.3745703     1.4436885     1.3198416
   6 C    8 O           1     1.2093324     1.2093324     1.2093324


optimized geometry written to: xtbopt.xyz


           -------------------------------------------------
          | TOTAL ENERGY              -37.467501064984 Eh   |
          | GRADIENT NORM               0.000802217252 Eh/α |
          | HOMO-LUMO GAP               3.148782493505 eV   |
           -------------------------------------------------
########################################################################
[WARNING] Runtime exception occurred
-1- restart_readRestart: Dimension missmatch in restart file.
########################################################################

------------------------------------------------------------------------
 * finished run on 2024/09/13 at 17:46:28.597     
------------------------------------------------------------------------
 total:
 * wall-time:     0 d,  0 h,  0 min, 15.186 sec
 *  cpu-time:     0 d,  0 h,  0 min,  5.544 sec
 * ratio c/w:     0.365 speedup
 SCF:
 * wall-time:     0 d,  0 h,  0 min,  0.033 sec
 *  cpu-time:     0 d,  0 h,  0 min,  0.195 sec
 * ratio c/w:     5.858 speedup
 ANC optimizer:
 * wall-time:     0 d,  0 h,  0 min,  0.483 sec
 *  cpu-time:     0 d,  0 h,  0 min,  3.567 sec
 * ratio c/w:     7.379 speedup

