      -----------------------------------------------------------      
     |                   =====================                   |     
     |                           x T B                           |     
     |                   =====================                   |     
     |                         S. Grimme                         |     
     |          Mulliken Center for Theoretical Chemistry        |     
     |                    University of Bonn                     |     
      -----------------------------------------------------------      

   * xtb version 6.6.0 (conda-forge) compiled by 'runner@Mac-1676020848589.local' on 2023-02-10

   xtb is free software: you can redistribute it and/or modify it under
   the terms of the GNU Lesser General Public License as published by
   the Free Software Foundation, either version 3 of the License, or
   (at your option) any later version.
   
   xtb is distributed in the hope that it will be useful,
   but WITHOUT ANY WARRANTY; without even the implied warranty of
   MERCHANTABILITY or FITNESS FOR A PARTICULAR PURPOSE.  See the
   GNU Lesser General Public License for more details.
   
   Cite this work as:
   * C. Bannwarth, E. Caldeweyher, S. Ehlert, A. Hansen, P. Pracht,
     J. Seibert, S. Spicher, S. Grimme, WIREs Comput. Mol. Sci., 2020, 11,
     e01493. DOI: 10.1002/wcms.1493
   
   for GFN2-xTB:
   * C. Bannwarth, S. Ehlert and S. Grimme., J. Chem. Theory Comput., 2019,
     15, 1652-1671. DOI: 10.1021/acs.jctc.8b01176
   for GFN1-xTB:
   * S. Grimme, C. Bannwarth, P. Shushkov, J. Chem. Theory Comput., 2017,
     13, 1989-2009. DOI: 10.1021/acs.jctc.7b00118
   for GFN0-xTB:
   * P. Pracht, E. Caldeweyher, S. Ehlert, S. Grimme, ChemRxiv, 2019, preprint.
     DOI: 10.26434/chemrxiv.8326202.v1
   for GFN-FF:
   * S. Spicher and S. Grimme, Angew. Chem. Int. Ed., 2020, 59, 15665-15673.
     DOI: 10.1002/anie.202004239
   
   for ALPB and GBSA implicit solvation:
   * S. Ehlert, M. Stahn, S. Spicher, S. Grimme, J. Chem. Theory Comput.,
     2021, 17, 4250-4261. DOI: 10.1021/acs.jctc.1c00471
   
   for DFT-D4:
   * E. Caldeweyher, C. Bannwarth and S. Grimme, J. Chem. Phys., 2017,
     147, 034112. DOI: 10.1063/1.4993215
   * E. Caldeweyher, S. Ehlert, A. Hansen, H. Neugebauer, S. Spicher,
     C. Bannwarth and S. Grimme, J. Chem. Phys., 2019, 150, 154122.
     DOI: 10.1063/1.5090222
   * E. Caldeweyher, J.-M. Mewes, S. Ehlert and S. Grimme, Phys. Chem. Chem. Phys.
     2020, 22, 8499-8512. DOI: 10.1039/D0CP00502A
   
   for sTDA-xTB:
   * S. Grimme and C. Bannwarth, J. Chem. Phys., 2016, 145, 054103.
     DOI: 10.1063/1.4959605
   
   in the mass-spec context:
   * V. Asgeirsson, C. Bauer and S. Grimme, Chem. Sci., 2017, 8, 4879.
     DOI: 10.1039/c7sc00601b
   * J. Koopman and S. Grimme, ACS Omega 2019, 4, 12, 15120-15133.
     DOI: 10.1021/acsomega.9b02011
   
   for metadynamics refer to:
   * S. Grimme, J. Chem. Theory Comput., 2019, 155, 2847-2862
     DOI: 10.1021/acs.jctc.9b00143
   
   for SPH calculations refer to:
   * S. Spicher and S. Grimme, J. Chem. Theory Comput., 2021, 17, 1701-1714
     DOI: 10.1021/acs.jctc.0c01306
   
   with help from (in alphabetical order)
   P. Atkinson, C. Bannwarth, F. Bohle, G. Brandenburg, E. Caldeweyher
   M. Checinski, S. Dohm, S. Ehlert, S. Ehrlich, I. Gerasimov, C. Hölzer
   A. Katbashev, J. Koopman, C. Lavigne, S. Lehtola, F. März, M. Müller,
   F. Musil, H. Neugebauer, J. Pisarek, C. Plett, P. Pracht, F. Pultar,
   J. Seibert, P. Shushkov, S. Spicher, M. Stahn, M. Steiner, T. Strunk,
   J. Stückrath, T. Rose, and J. Unsleber
   
 * started run on 2024/09/10 at 11:30:12.180     

           -------------------------------------------------
          |                Calculation Setup                |
           -------------------------------------------------

          program call               : xtb water.xyz --opt --gfn2
          coordinate file            : water.xyz
          omp threads                :                     8

   ID    Z sym.   atoms
    1    8 O      1
    2    1 H      2, 3

           -------------------------------------------------
          |                 G F N 2 - x T B                 |
           -------------------------------------------------

        Reference                      10.1021/acs.jctc.8b01176
      * Hamiltonian:
        H0-scaling (s, p, d)           1.850000    2.230000    2.230000
        zeta-weighting                 0.500000
      * Dispersion:
        s8                             2.700000
        a1                             0.520000
        a2                             5.000000
        s9                             5.000000
      * Repulsion:
        kExp                           1.500000    1.000000
        rExp                           1.000000
      * Coulomb:
        alpha                          2.000000
        third order                    shell-resolved
        anisotropic                    true
        a3                             3.000000
        a5                             4.000000
        cn-shift                       1.200000
        cn-exp                         4.000000
        max-rad                        5.000000


          ...................................................
          :                      SETUP                      :
          :.................................................:
          :  # basis functions                   6          :
          :  # atomic orbitals                   6          :
          :  # shells                            4          :
          :  # electrons                         8          :
          :  max. iterations                   250          :
          :  Hamiltonian                  GFN2-xTB          :
          :  restarted?                      false          :
          :  GBSA solvation                  false          :
          :  PC potential                    false          :
          :  electronic temp.          300.0000000     K    :
          :  accuracy                    1.0000000          :
          :  -> integral cutoff          0.2500000E+02      :
          :  -> integral neglect         0.1000000E-07      :
          :  -> SCF convergence          0.1000000E-05 Eh   :
          :  -> wf. convergence          0.1000000E-03 e    :
          :  Broyden damping             0.4000000          :
          ...................................................

 iter      E             dE          RMSdq      gap      omega  full diag
   1     -5.0925805 -0.509258E+01  0.411E+00   13.70       0.0  T
   2     -5.0943791 -0.179855E-02  0.231E+00   13.36       1.0  T
   3     -5.0946417 -0.262622E-03  0.430E-01   13.12       1.0  T
   4     -5.0947098 -0.681178E-04  0.866E-02   13.26       1.0  T
   5     -5.0947115 -0.165085E-05  0.631E-02   13.22       1.0  T
   6     -5.0947144 -0.291133E-05  0.988E-04   13.24      58.4  T
   7     -5.0947144  0.723333E-09  0.115E-03   13.24      50.4  T
   8     -5.0947144 -0.925663E-09  0.228E-05   13.24    2535.3  T
   9     -5.0947144 -0.365930E-12  0.255E-07   13.24  100000.0  T

   *** convergence criteria satisfied after 9 iterations ***

         #    Occupation            Energy/Eh            Energy/eV
      -------------------------------------------------------------
         1        2.0000           -0.6768031             -18.4167
         2        2.0000           -0.5634216             -15.3315
         3        2.0000           -0.5136479             -13.9771
         4        2.0000           -0.4457940             -12.1307 (HOMO)
         5                          0.0407260               1.1082 (LUMO)
         6                          0.1838438               5.0026
      -------------------------------------------------------------
                  HL-Gap            0.4865199 Eh           13.2389 eV
             Fermi-level           -0.2025340 Eh           -5.5112 eV

 SCC (total)                   0 d,  0 h,  0 min,  0.011 sec
 SCC setup                      ...        0 min,  0.002 sec ( 19.305%)
 Dispersion                     ...        0 min,  0.001 sec (  5.104%)
 classical contributions        ...        0 min,  0.000 sec (  2.794%)
 integral evaluation            ...        0 min,  0.001 sec ( 11.518%)
 iterations                     ...        0 min,  0.006 sec ( 53.268%)
 molecular gradient             ...        0 min,  0.000 sec (  4.050%)
 printout                       ...        0 min,  0.000 sec (  3.802%)

         :::::::::::::::::::::::::::::::::::::::::::::::::::::
         ::                     SUMMARY                     ::
         :::::::::::::::::::::::::::::::::::::::::::::::::::::
         :: total energy              -5.068980459049 Eh    ::
         :: gradient norm              0.047423485422 Eh/a0 ::
         :: HOMO-LUMO gap             13.238881033632 eV    ::
         ::.................................................::
         :: SCC energy                -5.094714374353 Eh    ::
         :: -> isotropic ES            0.031380234083 Eh    ::
         :: -> anisotropic ES          0.000816009242 Eh    ::
         :: -> anisotropic XC         -0.000454093835 Eh    ::
         :: -> dispersion             -0.000141995381 Eh    ::
         :: repulsion energy           0.025733915265 Eh    ::
         :: add. restraining           0.000000000000 Eh    ::
         :: total charge              -0.000000000000 e     ::
         :::::::::::::::::::::::::::::::::::::::::::::::::::::

      ----------------------------------------------------------- 
     |                   =====================                   |
     |                        A N C O P T                        |
     |                   =====================                   |
     |               Approximate Normal Coordinate               |
     |                Rational Function Optimizer                |
      ----------------------------------------------------------- 

          ...................................................
          :                      SETUP                      :
          :.................................................:
          :   optimization level            normal          :
          :   max. optcycles                   200          :
          :   ANC micro-cycles                  20          :
          :   degrees of freedom                 3          :
          :.................................................:
          :   RF solver                   davidson          :
          :   write xtbopt.log                true          :
          :   linear?                        false          :
          :   energy convergence         0.5000000E-05 Eh   :
          :   grad. convergence          0.1000000E-02 Eh/α :
          :   maxmium RF displ.          1.0000000          :
          :   Hlow (freq-cutoff)         0.1000000E-01      :
          :   Hmax (freq-cutoff)         5.0000000          :
          :   S6 in model hess.         20.0000000          :
          ...................................................

generating ANC from model Hessian ...
Using Lindh-Hessian (1995)
 Shifting diagonal of input Hessian by    0.0000000000000000     
 Lowest  eigenvalues of input Hessian
    0.000000    0.000000    0.000000    0.000000    0.000000    0.000000
    0.240594    1.109578    1.288788
 Highest eigenvalues
    0.000000    0.000000    0.000000    0.240594    1.109578    1.288788


........................................................................
.............................. CYCLE    1 ..............................
........................................................................

 iter      E             dE          RMSdq      gap      omega  full diag
   1     -5.0947144 -0.509471E+01  0.386E-08   13.24       0.0  T
   2     -5.0947144  0.266454E-14  0.167E-08   13.24  100000.0  T
   3     -5.0947144  0.000000E+00  0.617E-09   13.24  100000.0  T
     SCC iter.                  ...        0 min,  0.001 sec
     gradient                   ...        0 min,  0.001 sec
 * total energy  :    -5.0689805 Eh     change        0.1776357E-14 Eh
   gradient norm :     0.0474235 Eh/α   predicted     0.0000000E+00 (-100.00%)
   displ. norm   :     0.0458791 α      lambda       -0.2079865E-02
   maximum displ.:     0.0424927 α      in ANC's #2, #1, #3, ...

........................................................................
.............................. CYCLE    2 ..............................
........................................................................

 iter      E             dE          RMSdq      gap      omega  full diag
   1     -5.1020282 -0.510203E+01  0.206E-01   14.14       0.0  T
   2     -5.1020363 -0.810443E-05  0.112E-01   14.12       1.0  T
   3     -5.1020377 -0.135129E-05  0.261E-02   14.11       2.2  T
   4     -5.1020378 -0.169068E-06  0.569E-03   14.11      10.1  T
   5     -5.1020378 -0.179729E-08  0.266E-04   14.11     216.9  T
   6     -5.1020378 -0.241371E-10  0.252E-05   14.11    2286.6  T
     SCC iter.                  ...        0 min,  0.001 sec
     gradient                   ...        0 min,  0.000 sec
 * total energy  :    -5.0703649 Eh     change       -0.1384456E-02 Eh
   gradient norm :     0.0157281 Eh/α   predicted    -0.1042121E-02 ( -24.73%)
   displ. norm   :     0.0223226 α      lambda       -0.3440857E-03
   maximum displ.:     0.0215401 α      in ANC's #2, #1, #3, ...

........................................................................
.............................. CYCLE    3 ..............................
........................................................................

 iter      E             dE          RMSdq      gap      omega  full diag
   1     -5.1052405 -0.510524E+01  0.106E-01   14.49       0.0  T
   2     -5.1052432 -0.276327E-05  0.566E-02   14.48       1.0  T
   3     -5.1052437 -0.457550E-06  0.151E-02   14.47       3.8  T
   4     -5.1052437 -0.479886E-07  0.282E-03   14.48      20.5  T
   5     -5.1052437 -0.239449E-09  0.115E-04   14.48     502.6  T
   6     -5.1052437 -0.204459E-11  0.964E-06   14.48    5986.2  T
     SCC iter.                  ...        0 min,  0.000 sec
     gradient                   ...        0 min,  0.000 sec
 * total energy  :    -5.0705334 Eh     change       -0.1685302E-03 Eh
   gradient norm :     0.0021174 Eh/α   predicted    -0.1721294E-03 (   2.14%)
   displ. norm   :     0.0074471 α      lambda       -0.1422632E-04
   maximum displ.:     0.0074444 α      in ANC's #1, #2, #3, ...

........................................................................
.............................. CYCLE    4 ..............................
........................................................................

 iter      E             dE          RMSdq      gap      omega  full diag
   1     -5.1049897 -0.510499E+01  0.148E-02   14.42       0.0  T
   2     -5.1049897 -0.122064E-07  0.852E-03   14.42       6.8  T
   3     -5.1049897 -0.156264E-08  0.956E-04   14.42      60.4  T
   4     -5.1049897 -0.392696E-09  0.142E-04   14.42     407.4  T
     SCC iter.                  ...        0 min,  0.000 sec
     gradient                   ...        0 min,  0.000 sec
 * total energy  :    -5.0705430 Eh     change       -0.9592613E-05 Eh
   gradient norm :     0.0006710 Eh/α   predicted    -0.7114667E-05 ( -25.83%)
   displ. norm   :     0.0064945 α      lambda       -0.2826763E-05
   maximum displ.:     0.0064710 α      in ANC's #1, #2, #3, ...

........................................................................
.............................. CYCLE    5 ..............................
........................................................................

 iter      E             dE          RMSdq      gap      omega  full diag
   1     -5.1048714 -0.510487E+01  0.134E-02   14.38       0.0  T
   2     -5.1048715 -0.222671E-07  0.751E-03   14.38       7.7  T
   3     -5.1048715 -0.293639E-08  0.138E-03   14.38      41.9  T
   4     -5.1048715 -0.512218E-09  0.190E-04   14.38     303.2  T
   5     -5.1048715 -0.147526E-11  0.613E-06   14.38    9414.6  T
     SCC iter.                  ...        0 min,  0.000 sec
     gradient                   ...        0 min,  0.000 sec
 * total energy  :    -5.0705441 Eh     change       -0.1056727E-05 Eh
   gradient norm :     0.0003381 Eh/α   predicted    -0.1411254E-05 (  33.55%)
   displ. norm   :     0.0021643 α      lambda       -0.4670578E-06
   maximum displ.:     0.0021573 α      in ANC's #1, #2, #3, ...

   *** GEOMETRY OPTIMIZATION CONVERGED AFTER 5 ITERATIONS ***

------------------------------------------------------------------------
 total energy gain   :        -0.0015636 Eh       -0.9812 kcal/mol
 total RMSD          :         0.0372000 a0        0.0197 Å
 total power (kW/mol):        -0.8210647 (step) -389.0590 (real)
------------------------------------------------------------------------

 ANCopt (total)                0 d,  0 h,  0 min,  0.011 sec
 optimizer setup                ...        0 min,  0.001 sec (  5.637%)
 model hessian                  ...        0 min,  0.001 sec (  6.243%)
 ANC generation                 ...        0 min,  0.000 sec (  4.662%)
 coordinate transformation      ...        0 min,  0.000 sec (  0.090%)
 single point calculation       ...        0 min,  0.005 sec ( 42.934%)
 optimization log               ...        0 min,  0.002 sec ( 17.100%)
 hessian update                 ...        0 min,  0.000 sec (  0.662%)
 rational function              ...        0 min,  0.002 sec ( 19.460%)

================
 final structure:
================
3
 xtb: 6.6.0 (conda-forge)
O            0.01580556184926        0.37857349864087        0.00000000000000
H            0.76430206332065       -0.22147828506899        0.00000000000000
H           -0.78010762516991       -0.15699521357188        0.00000000000000

 Bond Distances (Angstroems)
 ---------------------------
O1-H2=0.9593         O1-H3=0.9593         H2-O1=0.9593         H3-O1=0.9593         
 O  H  Rav=0.9593 sigma=0.0000  Rmin=0.9593  Rmax=0.9593     2

 selected bond angles (degree)
 --------------------
H3-O1-H2=107.35                

 selected dihedral angles (degree)
 ---------------------------------

           -------------------------------------------------
          |                Final Singlepoint                |
           -------------------------------------------------

          ...................................................
          :                      SETUP                      :
          :.................................................:
          :  # basis functions                   6          :
          :  # atomic orbitals                   6          :
          :  # shells                            4          :
          :  # electrons                         8          :
          :  max. iterations                   250          :
          :  Hamiltonian                  GFN2-xTB          :
          :  restarted?                      false          :
          :  GBSA solvation                  false          :
          :  PC potential                    false          :
          :  electronic temp.          300.0000000     K    :
          :  accuracy                    1.0000000          :
          :  -> integral cutoff          0.2500000E+02      :
          :  -> integral neglect         0.1000000E-07      :
          :  -> SCF convergence          0.1000000E-05 Eh   :
          :  -> wf. convergence          0.1000000E-03 e    :
          :  Broyden damping             0.4000000          :
          ...................................................

 iter      E             dE          RMSdq      gap      omega  full diag
   1     -5.1048715 -0.510487E+01  0.328E-06   14.38       0.0  T
   2     -5.1048715  0.177636E-14  0.204E-06   14.38   28324.4  T
   3     -5.1048715  0.266454E-14  0.152E-07   14.38  100000.0  T

   *** convergence criteria satisfied after 3 iterations ***

         #    Occupation            Energy/Eh            Energy/eV
      -------------------------------------------------------------
         1        2.0000           -0.6800052             -18.5039
         2        2.0000           -0.5683764             -15.4663
         3        2.0000           -0.5106974             -13.8968
         4        2.0000           -0.4463313             -12.1453 (HOMO)
         5                          0.0819983               2.2313 (LUMO)
         6                          0.2516533               6.8478
      -------------------------------------------------------------
                  HL-Gap            0.5283296 Eh           14.3766 eV
             Fermi-level           -0.1821665 Eh           -4.9570 eV

 SCC (total)                   0 d,  0 h,  0 min,  0.001 sec
 SCC setup                      ...        0 min,  0.000 sec (  6.532%)
 Dispersion                     ...        0 min,  0.000 sec (  8.438%)
 classical contributions        ...        0 min,  0.000 sec (  3.538%)
 integral evaluation            ...        0 min,  0.000 sec ( 14.262%)
 iterations                     ...        0 min,  0.000 sec ( 36.772%)
 molecular gradient             ...        0 min,  0.000 sec ( 26.592%)
 printout                       ...        0 min,  0.000 sec (  2.858%)

         :::::::::::::::::::::::::::::::::::::::::::::::::::::
         ::                     SUMMARY                     ::
         :::::::::::::::::::::::::::::::::::::::::::::::::::::
         :: total energy              -5.070544094159 Eh    ::
         :: gradient norm              0.000338082001 Eh/a0 ::
         :: HOMO-LUMO gap             14.376578943543 eV    ::
         ::.................................................::
         :: SCC energy                -5.104871475630 Eh    ::
         :: -> isotropic ES            0.031463349532 Eh    ::
         :: -> anisotropic ES          0.000387463933 Eh    ::
         :: -> anisotropic XC         -0.000882924703 Eh    ::
         :: -> dispersion             -0.000141078778 Eh    ::
         :: repulsion energy           0.034327381446 Eh    ::
         :: add. restraining           0.000000000000 Eh    ::
         :: total charge               0.000000000000 e     ::
         :::::::::::::::::::::::::::::::::::::::::::::::::::::

           -------------------------------------------------
          |                Property Printout                |
           -------------------------------------------------

    * Orbital Energies and Occupations

         #    Occupation            Energy/Eh            Energy/eV
      -------------------------------------------------------------
         1        2.0000           -0.6800052             -18.5039
         2        2.0000           -0.5683764             -15.4663
         3        2.0000           -0.5106974             -13.8968
         4        2.0000           -0.4463313             -12.1453 (HOMO)
         5                          0.0819983               2.2313 (LUMO)
         6                          0.2516533               6.8478
      -------------------------------------------------------------
                  HL-Gap            0.5283296 Eh           14.3766 eV
             Fermi-level           -0.1821665 Eh           -4.9570 eV

     #   Z          covCN         q      C6AA      α(0)
     1   8 O        1.611    -0.565    24.359     6.661
     2   1 H        0.805     0.282     0.776     1.384
     3   1 H        0.805     0.282     0.776     1.384

 Mol. C6AA /au·bohr⁶  :         44.535651
 Mol. C8AA /au·bohr⁸  :        795.749788
 Mol. α(0) /au        :          9.429140


Wiberg/Mayer (AO) data.
largest (>0.10) Wiberg bond orders for each atom

 ---------------------------------------------------------------------------
     #   Z sym  total        # sym  WBO       # sym  WBO       # sym  WBO
 ---------------------------------------------------------------------------
     1   8 O    1.840 --     3 H    0.920     2 H    0.920
     2   1 H    0.920 --     1 O    0.920
     3   1 H    0.920 --     1 O    0.920
 ---------------------------------------------------------------------------

Topologies differ in total number of bonds
Writing topology from bond orders to xtbtopo.mol

molecular dipole:
                 x           y           z       tot (Debye)
 q only:       -0.025      -0.606       0.000
   full:       -0.036      -0.871      -0.000       2.215
molecular quadrupole (traceless):
                xx          xy          yy          xz          yz          zz
 q only:        1.310      -0.089      -0.816       0.000       0.000      -0.494
  q+dip:        1.746      -0.122      -1.173       0.000      -0.000      -0.574
   full:        1.949      -0.128      -1.117       0.000      -0.000      -0.832

           -------------------------------------------------
          |                Geometry Summary                 |
           -------------------------------------------------

      molecular mass/u    :       18.0152864
   center of mass at/Å    :        0.0131526       0.3150365       0.0000000
  moments of inertia/u·Å² :        0.5782168E+00   0.1204167E+01   0.1782383E+01
rotational constants/cm⁻¹ :        0.2915452E+02   0.1399942E+02   0.9457916E+01

 * 2 selected distances

     #   Z          #   Z                                           value/Å
     1   8 O        2   1 H                                       0.9593275 (min)
     1   8 O        3   1 H                                       0.9593288 (max)

 * 1 distinct bonds (by element types)

   Z      Z             #   av. dist./Å        max./Å        min./Å
   1 H    8 O           2     0.9593282     0.9593288     0.9593275


optimized geometry written to: xtbopt.xyz


           -------------------------------------------------
          | TOTAL ENERGY               -5.070544094159 Eh   |
          | GRADIENT NORM               0.000338082001 Eh/α |
          | HOMO-LUMO GAP              14.376578943543 eV   |
           -------------------------------------------------
########################################################################
[WARNING] Runtime exception occurred
-2- restart_readRestart: Dimension missmatch in restart file.
-1- restart_readRestart: Number of electron missmatch in restart file.
########################################################################

------------------------------------------------------------------------
 * finished run on 2024/09/10 at 11:30:21.368     
------------------------------------------------------------------------
 total:
 * wall-time:     0 d,  0 h,  0 min,  9.187 sec
 *  cpu-time:     0 d,  0 h,  0 min,  1.711 sec
 * ratio c/w:     0.186 speedup
 SCF:
 * wall-time:     0 d,  0 h,  0 min,  0.012 sec
 *  cpu-time:     0 d,  0 h,  0 min,  0.068 sec
 * ratio c/w:     5.830 speedup
 ANC optimizer:
 * wall-time:     0 d,  0 h,  0 min,  0.013 sec
 *  cpu-time:     0 d,  0 h,  0 min,  0.072 sec
 * ratio c/w:     5.554 speedup

