      -----------------------------------------------------------      
     |                   =====================                   |     
     |                           x T B                           |     
     |                   =====================                   |     
     |                         S. Grimme                         |     
     |          Mulliken Center for Theoretical Chemistry        |     
     |                    University of Bonn                     |     
      -----------------------------------------------------------      

   * xtb version 6.6.0 (conda-forge) compiled by 'runner@Mac-1676020848589.local' on 2023-02-10

   xtb is free software: you can redistribute it and/or modify it under
   the terms of the GNU Lesser General Public License as published by
   the Free Software Foundation, either version 3 of the License, or
   (at your option) any later version.
   
   xtb is distributed in the hope that it will be useful,
   but WITHOUT ANY WARRANTY; without even the implied warranty of
   MERCHANTABILITY or FITNESS FOR A PARTICULAR PURPOSE.  See the
   GNU Lesser General Public License for more details.
   
   Cite this work as:
   * C. Bannwarth, E. Caldeweyher, S. Ehlert, A. Hansen, P. Pracht,
     J. Seibert, S. Spicher, S. Grimme, WIREs Comput. Mol. Sci., 2020, 11,
     e01493. DOI: 10.1002/wcms.1493
   
   for GFN2-xTB:
   * C. Bannwarth, S. Ehlert and S. Grimme., J. Chem. Theory Comput., 2019,
     15, 1652-1671. DOI: 10.1021/acs.jctc.8b01176
   for GFN1-xTB:
   * S. Grimme, C. Bannwarth, P. Shushkov, J. Chem. Theory Comput., 2017,
     13, 1989-2009. DOI: 10.1021/acs.jctc.7b00118
   for GFN0-xTB:
   * P. Pracht, E. Caldeweyher, S. Ehlert, S. Grimme, ChemRxiv, 2019, preprint.
     DOI: 10.26434/chemrxiv.8326202.v1
   for GFN-FF:
   * S. Spicher and S. Grimme, Angew. Chem. Int. Ed., 2020, 59, 15665-15673.
     DOI: 10.1002/anie.202004239
   
   for ALPB and GBSA implicit solvation:
   * S. Ehlert, M. Stahn, S. Spicher, S. Grimme, J. Chem. Theory Comput.,
     2021, 17, 4250-4261. DOI: 10.1021/acs.jctc.1c00471
   
   for DFT-D4:
   * E. Caldeweyher, C. Bannwarth and S. Grimme, J. Chem. Phys., 2017,
     147, 034112. DOI: 10.1063/1.4993215
   * E. Caldeweyher, S. Ehlert, A. Hansen, H. Neugebauer, S. Spicher,
     C. Bannwarth and S. Grimme, J. Chem. Phys., 2019, 150, 154122.
     DOI: 10.1063/1.5090222
   * E. Caldeweyher, J.-M. Mewes, S. Ehlert and S. Grimme, Phys. Chem. Chem. Phys.
     2020, 22, 8499-8512. DOI: 10.1039/D0CP00502A
   
   for sTDA-xTB:
   * S. Grimme and C. Bannwarth, J. Chem. Phys., 2016, 145, 054103.
     DOI: 10.1063/1.4959605
   
   in the mass-spec context:
   * V. Asgeirsson, C. Bauer and S. Grimme, Chem. Sci., 2017, 8, 4879.
     DOI: 10.1039/c7sc00601b
   * J. Koopman and S. Grimme, ACS Omega 2019, 4, 12, 15120-15133.
     DOI: 10.1021/acsomega.9b02011
   
   for metadynamics refer to:
   * S. Grimme, J. Chem. Theory Comput., 2019, 155, 2847-2862
     DOI: 10.1021/acs.jctc.9b00143
   
   for SPH calculations refer to:
   * S. Spicher and S. Grimme, J. Chem. Theory Comput., 2021, 17, 1701-1714
     DOI: 10.1021/acs.jctc.0c01306
   
   with help from (in alphabetical order)
   P. Atkinson, C. Bannwarth, F. Bohle, G. Brandenburg, E. Caldeweyher
   M. Checinski, S. Dohm, S. Ehlert, S. Ehrlich, I. Gerasimov, C. Hölzer
   A. Katbashev, J. Koopman, C. Lavigne, S. Lehtola, F. März, M. Müller,
   F. Musil, H. Neugebauer, J. Pisarek, C. Plett, P. Pracht, F. Pultar,
   J. Seibert, P. Shushkov, S. Spicher, M. Stahn, M. Steiner, T. Strunk,
   J. Stückrath, T. Rose, and J. Unsleber
   
 * started run on 2024/09/21 at 22:08:09.013     

           -------------------------------------------------
          |                Calculation Setup                |
           -------------------------------------------------

          program call               : xtb paraxanthine.xyz --opt --gfn2
          coordinate file            : paraxanthine.xyz
          omp threads                :                     8

   ID    Z sym.   atoms
    1    6 C      1, 3, 5-7, 10, 13
    2    7 N      2, 4, 9, 12
    3    8 O      8, 11
    4    1 H      14-21

           -------------------------------------------------
          |                 G F N 2 - x T B                 |
           -------------------------------------------------

        Reference                      10.1021/acs.jctc.8b01176
      * Hamiltonian:
        H0-scaling (s, p, d)           1.850000    2.230000    2.230000
        zeta-weighting                 0.500000
      * Dispersion:
        s8                             2.700000
        a1                             0.520000
        a2                             5.000000
        s9                             5.000000
      * Repulsion:
        kExp                           1.500000    1.000000
        rExp                           1.000000
      * Coulomb:
        alpha                          2.000000
        third order                    shell-resolved
        anisotropic                    true
        a3                             3.000000
        a5                             4.000000
        cn-shift                       1.200000
        cn-exp                         4.000000
        max-rad                        5.000000

q/qsh data taken from xtbrestart
CAMM data taken from xtbrestart

          ...................................................
          :                      SETUP                      :
          :.................................................:
          :  # basis functions                  60          :
          :  # atomic orbitals                  60          :
          :  # shells                           34          :
          :  # electrons                        68          :
          :  max. iterations                   250          :
          :  Hamiltonian                  GFN2-xTB          :
          :  restarted?                       true          :
          :  GBSA solvation                  false          :
          :  PC potential                    false          :
          :  electronic temp.          300.0000000     K    :
          :  accuracy                    1.0000000          :
          :  -> integral cutoff          0.2500000E+02      :
          :  -> integral neglect         0.1000000E-07      :
          :  -> SCF convergence          0.1000000E-05 Eh   :
          :  -> wf. convergence          0.1000000E-03 e    :
          :  Broyden damping             0.4000000          :
          ...................................................

 iter      E             dE          RMSdq      gap      omega  full diag
   1    -39.3594003 -0.393594E+02  0.348E+00    3.55       0.0  T
   2    -39.3941820 -0.347817E-01  0.216E+00    3.42       1.0  T
   3    -39.3949084 -0.726421E-03  0.105E+00    3.44       1.0  T
   4    -39.3995575 -0.464906E-02  0.312E-01    3.46       1.0  T
   5    -39.4011014 -0.154392E-02  0.118E-01    3.44       1.0  T
   6    -39.4011120 -0.105754E-04  0.612E-02    3.45       1.0  T
   7    -39.4011341 -0.221898E-04  0.125E-02    3.44       1.8  T
   8    -39.4011343 -0.208050E-06  0.589E-03    3.45       3.7  T
   9    -39.4011344 -0.787228E-07  0.146E-03    3.45      15.0  T
  10    -39.4011344 -0.143568E-07  0.540E-04    3.45      40.4  T
  11    -39.4011344 -0.488420E-09  0.187E-04    3.45     116.8  T

   *** convergence criteria satisfied after 11 iterations ***

         #    Occupation            Energy/Eh            Energy/eV
      -------------------------------------------------------------
         1        2.0000           -0.7314216             -19.9030
       ...           ...                  ...                  ...
        28        2.0000           -0.4755461             -12.9403
        29        2.0000           -0.4423338             -12.0365
        30        2.0000           -0.4263442             -11.6014
        31        2.0000           -0.4226175             -11.5000
        32        2.0000           -0.4158420             -11.3156
        33        2.0000           -0.4031383             -10.9700
        34        2.0000           -0.4001238             -10.8879 (HOMO)
        35                         -0.2735095              -7.4426 (LUMO)
        36                         -0.2326354              -6.3303
        37                         -0.2196053              -5.9758
        38                         -0.1192141              -3.2440
        39                         -0.0675909              -1.8392
       ...                                ...                  ...
        60                          0.6639339              18.0666
      -------------------------------------------------------------
                  HL-Gap            0.1266143 Eh            3.4454 eV
             Fermi-level           -0.3368167 Eh           -9.1652 eV

 SCC (total)                   0 d,  0 h,  0 min,  0.022 sec
 SCC setup                      ...        0 min,  0.001 sec (  2.698%)
 Dispersion                     ...        0 min,  0.000 sec (  0.865%)
 classical contributions        ...        0 min,  0.000 sec (  0.225%)
 integral evaluation            ...        0 min,  0.001 sec (  4.074%)
 iterations                     ...        0 min,  0.018 sec ( 80.868%)
 molecular gradient             ...        0 min,  0.002 sec (  9.916%)
 printout                       ...        0 min,  0.000 sec (  1.260%)

         :::::::::::::::::::::::::::::::::::::::::::::::::::::
         ::                     SUMMARY                     ::
         :::::::::::::::::::::::::::::::::::::::::::::::::::::
         :: total energy             -38.961650212052 Eh    ::
         :: gradient norm              0.166827362530 Eh/a0 ::
         :: HOMO-LUMO gap              3.445350398419 eV    ::
         ::.................................................::
         :: SCC energy               -39.401134442825 Eh    ::
         :: -> isotropic ES            0.094608155752 Eh    ::
         :: -> anisotropic ES          0.003014563933 Eh    ::
         :: -> anisotropic XC          0.012896773302 Eh    ::
         :: -> dispersion             -0.019921229773 Eh    ::
         :: repulsion energy           0.439426007301 Eh    ::
         :: add. restraining           0.000000000000 Eh    ::
         :: total charge               0.000000000000 e     ::
         :::::::::::::::::::::::::::::::::::::::::::::::::::::

      ----------------------------------------------------------- 
     |                   =====================                   |
     |                        A N C O P T                        |
     |                   =====================                   |
     |               Approximate Normal Coordinate               |
     |                Rational Function Optimizer                |
      ----------------------------------------------------------- 

          ...................................................
          :                      SETUP                      :
          :.................................................:
          :   optimization level            normal          :
          :   max. optcycles                   200          :
          :   ANC micro-cycles                  20          :
          :   degrees of freedom                57          :
          :.................................................:
          :   RF solver                   davidson          :
          :   write xtbopt.log                true          :
          :   linear?                        false          :
          :   energy convergence         0.5000000E-05 Eh   :
          :   grad. convergence          0.1000000E-02 Eh/α :
          :   maxmium RF displ.          1.0000000          :
          :   Hlow (freq-cutoff)         0.1000000E-01      :
          :   Hmax (freq-cutoff)         5.0000000          :
          :   S6 in model hess.         20.0000000          :
          ...................................................

generating ANC from model Hessian ...
Using Lindh-Hessian (1995)
 Shifting diagonal of input Hessian by    6.1898948217258953E-003
 Lowest  eigenvalues of input Hessian
    0.000000    0.000000    0.000000    0.000000    0.000000    0.000000
    0.010000    0.010802    0.015208    0.016038    0.016727    0.022815
    0.027994    0.030611    0.041273    0.048632    0.053156    0.054091
 Highest eigenvalues
    2.074954    2.089358    2.102334    2.205849    2.449173    2.487178


........................................................................
.............................. CYCLE    1 ..............................
........................................................................

 iter      E             dE          RMSdq      gap      omega  full diag
   1    -39.4011344 -0.394011E+02  0.702E-05    3.45       0.0  T
   2    -39.4011344 -0.232845E-10  0.391E-05    3.45     558.3  T
   3    -39.4011344 -0.837019E-11  0.247E-05    3.45     883.1  T
     SCC iter.                  ...        0 min,  0.002 sec
     gradient                   ...        0 min,  0.002 sec
 * total energy  :   -38.9616502 Eh     change       -0.1538112E-09 Eh
   gradient norm :     0.1668263 Eh/α   predicted     0.0000000E+00 (-100.00%)
   displ. norm   :     0.2721665 α      lambda       -0.2409541E-01
   maximum displ.:     0.1167193 α      in ANC's #13, #10, #19, ...

........................................................................
.............................. CYCLE    2 ..............................
........................................................................

 iter      E             dE          RMSdq      gap      omega  full diag
   1    -39.4361752 -0.394362E+02  0.351E-01    3.56       0.0  T
   2    -39.4372700 -0.109474E-02  0.206E-01    3.50       1.0  T
   3    -39.4374033 -0.133340E-03  0.106E-01    3.52       1.0  T
   4    -39.4373976  0.569450E-05  0.438E-02    3.52       1.0  T
   5    -39.4374220 -0.243659E-04  0.945E-03    3.52       2.3  T
   6    -39.4374224 -0.400514E-06  0.470E-03    3.52       4.6  T
   7    -39.4374225 -0.774717E-07  0.175E-03    3.52      12.5  T
   8    -39.4374225 -0.246967E-07  0.531E-04    3.52      41.1  T
   9    -39.4374225 -0.163970E-08  0.202E-04    3.52     108.2  T
     SCC iter.                  ...        0 min,  0.009 sec
     gradient                   ...        0 min,  0.002 sec
 * total energy  :   -38.9785138 Eh     change       -0.1686361E-01 Eh
   gradient norm :     0.0715430 Eh/α   predicted    -0.1294497E-01 ( -23.24%)
   displ. norm   :     0.1987167 α      lambda       -0.7089423E-02
   maximum displ.:     0.0907748 α      in ANC's #10, #13, #30, ...

........................................................................
.............................. CYCLE    3 ..............................
........................................................................

 iter      E             dE          RMSdq      gap      omega  full diag
   1    -39.4548954 -0.394549E+02  0.288E-01    3.60       0.0  T
   2    -39.4555022 -0.606832E-03  0.156E-01    3.55       1.0  T
   3    -39.4555744 -0.721945E-04  0.808E-02    3.57       1.0  T
   4    -39.4555766 -0.221054E-05  0.330E-02    3.56       1.0  T
   5    -39.4555912 -0.146117E-04  0.709E-03    3.56       3.1  T
   6    -39.4555915 -0.239707E-06  0.354E-03    3.56       6.2  T
   7    -39.4555915 -0.473680E-07  0.125E-03    3.56      17.4  T
   8    -39.4555915 -0.126404E-07  0.376E-04    3.56      58.1  T
   9    -39.4555915 -0.811177E-09  0.151E-04    3.56     144.3  T
     SCC iter.                  ...        0 min,  0.006 sec
     gradient                   ...        0 min,  0.002 sec
 * total energy  :   -38.9823379 Eh     change       -0.3824114E-02 Eh
   gradient norm :     0.0168457 Eh/α   predicted    -0.3684995E-02 (  -3.64%)
   displ. norm   :     0.0703443 α      lambda       -0.4623130E-03
   maximum displ.:     0.0379162 α      in ANC's #3, #10, #13, ...

........................................................................
.............................. CYCLE    4 ..............................
........................................................................

 iter      E             dE          RMSdq      gap      omega  full diag
   1    -39.4530661 -0.394531E+02  0.698E-02    3.57       0.0  T
   2    -39.4530762 -0.101215E-04  0.382E-02    3.56       1.0  T
   3    -39.4530749  0.129884E-05  0.202E-02    3.56       1.1  T
   4    -39.4530783 -0.338968E-05  0.497E-03    3.56       4.4  T
   5    -39.4530787 -0.333959E-06  0.138E-03    3.56      15.8  T
   6    -39.4530787 -0.533231E-08  0.770E-04    3.56      28.3  T
   7    -39.4530787 -0.119974E-08  0.169E-04    3.56     129.4  T
     SCC iter.                  ...        0 min,  0.005 sec
     gradient                   ...        0 min,  0.002 sec
 * total energy  :   -38.9826508 Eh     change       -0.3128304E-03 Eh
   gradient norm :     0.0079836 Eh/α   predicted    -0.2323503E-03 ( -25.73%)
   displ. norm   :     0.0518169 α      lambda       -0.1402347E-03
   maximum displ.:     0.0357730 α      in ANC's #3, #2, #7, ...

........................................................................
.............................. CYCLE    5 ..............................
........................................................................

 iter      E             dE          RMSdq      gap      omega  full diag
   1    -39.4520143 -0.394520E+02  0.402E-02    3.57       0.0  T
   2    -39.4520196 -0.530605E-05  0.220E-02    3.56       1.0  T
   3    -39.4520197 -0.369050E-07  0.117E-02    3.56       1.9  T
   4    -39.4520203 -0.625036E-06  0.348E-03    3.56       6.3  T
   5    -39.4520205 -0.186562E-06  0.804E-04    3.56      27.2  T
   6    -39.4520205 -0.318963E-08  0.437E-04    3.56      49.9  T
     SCC iter.                  ...        0 min,  0.005 sec
     gradient                   ...        0 min,  0.002 sec
 * total energy  :   -38.9827293 Eh     change       -0.7857792E-04 Eh
   gradient norm :     0.0028776 Eh/α   predicted    -0.7030854E-04 ( -10.52%)
   displ. norm   :     0.0168543 α      lambda       -0.1166875E-04
   maximum displ.:     0.0109002 α      in ANC's #3, #2, #4, ...

........................................................................
.............................. CYCLE    6 ..............................
........................................................................

 iter      E             dE          RMSdq      gap      omega  full diag
   1    -39.4522347 -0.394522E+02  0.862E-03    3.57       0.0  T
   2    -39.4522350 -0.256419E-06  0.500E-03    3.56       4.4  T
   3    -39.4522350 -0.573699E-08  0.213E-03    3.56      10.2  T
   4    -39.4522350 -0.836692E-08  0.535E-04    3.56      40.8  T
   5    -39.4522350 -0.448379E-08  0.184E-04    3.56     118.7  T
     SCC iter.                  ...        0 min,  0.004 sec
     gradient                   ...        0 min,  0.002 sec
 * total energy  :   -38.9827378 Eh     change       -0.8502340E-05 Eh
   gradient norm :     0.0017241 Eh/α   predicted    -0.5838761E-05 ( -31.33%)
   displ. norm   :     0.0332777 α      lambda       -0.8142336E-05
   maximum displ.:     0.0182440 α      in ANC's #2, #3, #4, ...

........................................................................
.............................. CYCLE    7 ..............................
........................................................................

 iter      E             dE          RMSdq      gap      omega  full diag
   1    -39.4527076 -0.394527E+02  0.149E-02    3.56       0.0  T
   2    -39.4527079 -0.336778E-06  0.857E-03    3.56       2.5  T
   3    -39.4527079 -0.731625E-08  0.241E-03    3.56       9.1  T
   4    -39.4527079 -0.191554E-07  0.489E-04    3.56      44.6  T
   5    -39.4527079 -0.103027E-08  0.241E-04    3.56      90.7  T
     SCC iter.                  ...        0 min,  0.004 sec
     gradient                   ...        0 min,  0.002 sec
 * total energy  :   -38.9827431 Eh     change       -0.5218898E-05 Eh
   gradient norm :     0.0011541 Eh/α   predicted    -0.4081216E-05 ( -21.80%)
   displ. norm   :     0.0091940 α      lambda       -0.1683101E-05
   maximum displ.:     0.0059716 α      in ANC's #4, #2, #5, ...

........................................................................
.............................. CYCLE    8 ..............................
........................................................................

 iter      E             dE          RMSdq      gap      omega  full diag
   1    -39.4526022 -0.394526E+02  0.382E-03    3.56       0.0  T
   2    -39.4526022 -0.436101E-07  0.233E-03    3.56       9.4  T
   3    -39.4526022 -0.418702E-09  0.102E-03    3.56      21.3  T
   4    -39.4526022 -0.414091E-08  0.246E-04    3.56      88.6  T
   5    -39.4526022 -0.101493E-08  0.687E-05    3.56     317.5  T
     SCC iter.                  ...        0 min,  0.004 sec
     gradient                   ...        0 min,  0.002 sec
 * total energy  :   -38.9827450 Eh     change       -0.1970427E-05 Eh
   gradient norm :     0.0005971 Eh/α   predicted    -0.8450652E-06 ( -57.11%)
   displ. norm   :     0.0364468 α      lambda       -0.3126222E-05
   maximum displ.:     0.0248510 α      in ANC's #4, #2, #5, ...

   *** GEOMETRY OPTIMIZATION CONVERGED AFTER 8 ITERATIONS ***

------------------------------------------------------------------------
 total energy gain   :        -0.0210948 Eh      -13.2372 kcal/mol
 total RMSD          :         0.1214477 a0        0.0643 Å
 total power (kW/mol):        -6.9230570 (step) -790.1899 (real)
------------------------------------------------------------------------

 ANCopt (total)                0 d,  0 h,  0 min,  0.070 sec
 optimizer setup                ...        0 min,  0.000 sec (  0.228%)
 model hessian                  ...        0 min,  0.006 sec (  7.964%)
 ANC generation                 ...        0 min,  0.001 sec (  1.004%)
 coordinate transformation      ...        0 min,  0.000 sec (  0.084%)
 single point calculation       ...        0 min,  0.061 sec ( 86.704%)
 optimization log               ...        0 min,  0.001 sec (  1.548%)
 hessian update                 ...        0 min,  0.000 sec (  0.127%)
 rational function              ...        0 min,  0.001 sec (  1.563%)

================
 final structure:
================
21
 xtb: 6.6.0 (conda-forge)
C           -2.71431506785602       -1.14603798423139        0.39464037938332
N           -1.97863425884100        0.01400968439600       -0.01847966709343
C           -2.45287230481728        1.19837102957889       -0.44147141467302
N           -1.51015578600018        2.06633371344132       -0.74744712931358
C           -0.35711622701672        1.40935205225101       -0.50971774723378
C           -0.60809826082082        0.12372844145449       -0.05350470085643
C            0.43706598658221       -0.79786342691602        0.28449601707217
O            0.30258875650169       -1.93569633222449        0.68867813886116
N            1.70196712231390       -0.23060389837862        0.08913335181422
C            1.99527253215726        1.04947095890589       -0.36165760965548
O            3.13030434803844        1.44431365752106       -0.49207632815819
N            0.91882185737427        1.85423132498333       -0.66274215252449
C            2.84606381109062       -1.07250622942862        0.40023090987740
H           -2.47009994950419       -1.39356880445275        1.42875345839937
H           -2.44212179053936       -2.00016518605400       -0.22688110944709
H           -3.78066860876729       -0.94855079355621        0.30466082912998
H           -3.49965141732030        1.41386925838877       -0.52182200773947
H            1.10651656746893        2.79058450370513       -0.99109276645546
H            2.55118019906516       -2.11064497978608        0.26206343467224
H            3.15608934839210       -0.92134036675734        1.43508798077257
H            3.66776314249856       -0.80748662284036       -0.26085186683201

 Bond Distances (Angstroems)
 ---------------------------
C1-N2=1.4344         C1-H14=1.0910        C1-H15=1.0908        C1-H16=1.0882        N2-C1=1.4344         N2-C3=1.3441         
N2-C6=1.3754         C3-N2=1.3441         C3-N4=1.3175         C3-H17=1.0717        N4-C3=1.3175         N4-C5=1.3482         
C5-N4=1.3482         C5-C6=1.3871         C5-N12=1.3599        C6-N2=1.3754         C6-C5=1.3871         C6-C7=1.4339         
C7-C6=1.4339         C7-O8=1.2150         C7-N9=1.4000         O8-C7=1.2150         N9-C7=1.4000         N9-C10=1.3885        
N9-C13=1.4541        C10-N9=1.3885        C10-O11=1.2088       C10-N12=1.3773       O11-C10=1.2088       N12-C5=1.3599        
N12-C10=1.3773       N12-H18=1.0099       C13-N9=1.4541        C13-H19=1.0880       C13-H20=1.0908       C13-H21=1.0874       
H14-C1=1.0910        H15-C1=1.0908        H16-C1=1.0882        H17-C3=1.0717        H18-N12=1.0099       H19-C13=1.0880       
H20-C13=1.0908       H21-C13=1.0874       
 C  H  Rav=1.0869 sigma=0.0063  Rmin=1.0717  Rmax=1.0910     7
 C  C  Rav=1.4105 sigma=0.0234  Rmin=1.3871  Rmax=1.4339     2
 N  H  Rav=1.0099 sigma=0.0000  Rmin=1.0099  Rmax=1.0099     1
 N  C  Rav=1.3799 sigma=0.0395  Rmin=1.3175  Rmax=1.4541    10
 O  C  Rav=1.2119 sigma=0.0031  Rmin=1.2088  Rmax=1.2150     2

 selected bond angles (degree)
 --------------------
H14-C1-N2=109.98               H15-C1-N2=109.95               H15-C1-H14=107.85              H16-C1-N2=109.39               
H16-C1-H14=109.81              H16-C1-H15=109.85              C3-N2-C1=128.48                C6-N2-C1=125.66                
C6-N2-C3=105.86                N4-C3-N2=113.65                H17-C3-N2=123.05               H17-C3-N4=123.30               
C5-N4-C3=104.48                C6-C5-N4=110.79                N12-C5-N4=128.55               N12-C5-C6=120.66               
C5-C6-N2=105.23                C7-C6-N2=132.00                C7-C6-C5=122.78                O8-C7-C6=126.85                
N9-C7-C6=111.42                N9-C7-O8=121.73                C10-N9-C7=127.57               C13-N9-C7=116.51               
C13-N9-C10=115.91              O11-C10-N9=122.31              N12-C10-N9=116.39              N12-C10-O11=121.29             

 selected dihedral angles (degree)
 ---------------------------------
C3-N2-C1-H14=240.29           C3-N2-C1-H15=121.68           C3-N2-C1-H16=  0.97           C6-N2-C1-H14= 60.16           
C6-N2-C1-H15=301.54           C6-N2-C1-H16=180.84           N4-C3-N2-C1=179.88            N4-C3-N2-C6=  0.00            
H17-C3-N2-C1=359.85           H17-C3-N2-C6=179.97           C5-N4-C3-N2=  0.00            C5-N4-C3-H17=180.01           
C6-C5-N4-C3=  0.03            N12-C5-N4-C3=180.06           C5-C6-N2-C1=180.14            C5-C6-N2-C3=  0.03            
C7-C6-N2-C1=359.76            C7-C6-N2-C3=179.65            N2-C6-C5-N4=359.96            N2-C6-C5-N12=179.94           
C7-C6-C5-N4=180.29            C7-C6-C5-N12=  0.27           O8-C7-C6-N2=  0.45            O8-C7-C6-C5=180.02            
N9-C7-C6-N2=180.25            N9-C7-C6-C5=359.82            C10-N9-C7-C6=  0.35           C10-N9-C7-O8=180.16           
C13-N9-C7-C6=179.96           C13-N9-C7-O8=359.77           O11-C10-N9-C7=179.76          O11-C10-N9-C13=  0.15         
N12-C10-N9-C7=359.44          N12-C10-N9-C13=179.83         
           -------------------------------------------------
          |                Final Singlepoint                |
           -------------------------------------------------

          ...................................................
          :                      SETUP                      :
          :.................................................:
          :  # basis functions                  60          :
          :  # atomic orbitals                  60          :
          :  # shells                           34          :
          :  # electrons                        68          :
          :  max. iterations                   250          :
          :  Hamiltonian                  GFN2-xTB          :
          :  restarted?                      false          :
          :  GBSA solvation                  false          :
          :  PC potential                    false          :
          :  electronic temp.          300.0000000     K    :
          :  accuracy                    1.0000000          :
          :  -> integral cutoff          0.2500000E+02      :
          :  -> integral neglect         0.1000000E-07      :
          :  -> SCF convergence          0.1000000E-05 Eh   :
          :  -> wf. convergence          0.1000000E-03 e    :
          :  Broyden damping             0.4000000          :
          ...................................................

 iter      E             dE          RMSdq      gap      omega  full diag
   1    -39.4526022 -0.394526E+02  0.314E-05    3.56       0.0  T
   2    -39.4526022 -0.317613E-11  0.205E-05    3.56    1064.4  T
   3    -39.4526022 -0.196110E-11  0.122E-05    3.56    1787.8  T

   *** convergence criteria satisfied after 3 iterations ***

         #    Occupation            Energy/Eh            Energy/eV
      -------------------------------------------------------------
         1        2.0000           -0.7254786             -19.7413
       ...           ...                  ...                  ...
        28        2.0000           -0.4764806             -12.9657
        29        2.0000           -0.4412168             -12.0061
        30        2.0000           -0.4333257             -11.7914
        31        2.0000           -0.4221859             -11.4883
        32        2.0000           -0.4190080             -11.4018
        33        2.0000           -0.4072293             -11.0813
        34        2.0000           -0.3979237             -10.8281 (HOMO)
        35                         -0.2670040              -7.2655 (LUMO)
        36                         -0.2232390              -6.0746
        37                         -0.2087517              -5.6804
        38                         -0.1253680              -3.4114
        39                         -0.0438421              -1.1930
       ...                                ...                  ...
        60                          0.6952900              18.9198
      -------------------------------------------------------------
                  HL-Gap            0.1309196 Eh            3.5625 eV
             Fermi-level           -0.3324639 Eh           -9.0468 eV

 SCC (total)                   0 d,  0 h,  0 min,  0.006 sec
 SCC setup                      ...        0 min,  0.000 sec (  2.059%)
 Dispersion                     ...        0 min,  0.000 sec (  1.970%)
 classical contributions        ...        0 min,  0.000 sec (  0.286%)
 integral evaluation            ...        0 min,  0.001 sec ( 12.527%)
 iterations                     ...        0 min,  0.003 sec ( 46.776%)
 molecular gradient             ...        0 min,  0.002 sec ( 34.317%)
 printout                       ...        0 min,  0.000 sec (  1.829%)

         :::::::::::::::::::::::::::::::::::::::::::::::::::::
         ::                     SUMMARY                     ::
         :::::::::::::::::::::::::::::::::::::::::::::::::::::
         :: total energy             -38.982745037417 Eh    ::
         :: gradient norm              0.000597670489 Eh/a0 ::
         :: HOMO-LUMO gap              3.562504447688 eV    ::
         ::.................................................::
         :: SCC energy               -39.452602206445 Eh    ::
         :: -> isotropic ES            0.084223394203 Eh    ::
         :: -> anisotropic ES          0.003552482935 Eh    ::
         :: -> anisotropic XC          0.011821847839 Eh    ::
         :: -> dispersion             -0.020003634115 Eh    ::
         :: repulsion energy           0.469794421138 Eh    ::
         :: add. restraining           0.000000000000 Eh    ::
         :: total charge              -0.000000000000 e     ::
         :::::::::::::::::::::::::::::::::::::::::::::::::::::

           -------------------------------------------------
          |                Property Printout                |
           -------------------------------------------------

    * Orbital Energies and Occupations

         #    Occupation            Energy/Eh            Energy/eV
      -------------------------------------------------------------
         1        2.0000           -0.7254786             -19.7413
       ...           ...                  ...                  ...
        22        2.0000           -0.5241858             -14.2638
        23        2.0000           -0.5125773             -13.9479
        24        2.0000           -0.5068627             -13.7924
        25        2.0000           -0.5054153             -13.7530
        26        2.0000           -0.5014269             -13.6445
        27        2.0000           -0.4784010             -13.0180
        28        2.0000           -0.4764806             -12.9657
        29        2.0000           -0.4412168             -12.0061
        30        2.0000           -0.4333257             -11.7914
        31        2.0000           -0.4221859             -11.4883
        32        2.0000           -0.4190080             -11.4018
        33        2.0000           -0.4072293             -11.0813
        34        2.0000           -0.3979237             -10.8281 (HOMO)
        35                         -0.2670040              -7.2655 (LUMO)
        36                         -0.2232390              -6.0746
        37                         -0.2087517              -5.6804
        38                         -0.1253680              -3.4114
        39                         -0.0438421              -1.1930
        40                          0.0014907               0.0406
        41                          0.0245693               0.6686
        42                          0.0943580               2.5676
        43                          0.0956459               2.6027
        44                          0.1147626               3.1228
        45                          0.1272956               3.4639
       ...                                ...                  ...
        60                          0.6952900              18.9198
      -------------------------------------------------------------
                  HL-Gap            0.1309196 Eh            3.5625 eV
             Fermi-level           -0.3324639 Eh           -9.0468 eV

     #   Z          covCN         q      C6AA      α(0)
     1   6 C        3.689    -0.056    21.781     6.679
     2   7 N        2.838     0.005    21.162     6.832
     3   6 C        3.210     0.088    25.452     8.213
     4   7 N        1.895    -0.282    28.166     7.868
     5   6 C        3.185     0.132    24.708     8.111
     6   6 C        3.121    -0.038    28.756     8.782
     7   6 C        2.766     0.266    22.514     7.771
     8   8 O        0.858    -0.429    22.261     6.326
     9   7 N        2.748    -0.111    23.415     7.187
    10   6 C        2.713     0.324    21.500     7.590
    11   8 O        0.860    -0.435    22.393     6.345
    12   7 N        2.696    -0.161    24.488     7.350
    13   6 C        3.707    -0.045    21.519     6.631
    14   1 H        0.924     0.083     1.951     2.184
    15   1 H        0.924     0.083     1.944     2.180
    16   1 H        0.925     0.067     2.116     2.275
    17   1 H        0.926     0.058     2.223     2.331
    18   1 H        0.860     0.217     1.023     1.585
    19   1 H        0.925     0.086     1.920     2.167
    20   1 H        0.924     0.065     2.139     2.287
    21   1 H        0.925     0.082     1.954     2.186

 Mol. C6AA /au·bohr⁶  :       5482.449886
 Mol. C8AA /au·bohr⁸  :     126487.497094
 Mol. α(0) /au        :        112.879708


Wiberg/Mayer (AO) data.
largest (>0.10) Wiberg bond orders for each atom

 ---------------------------------------------------------------------------
     #   Z sym  total        # sym  WBO       # sym  WBO       # sym  WBO
 ---------------------------------------------------------------------------
     1   6 C    3.958 --     2 N    1.000    16 H    0.981    15 H    0.969
                            14 H    0.969
     2   7 N    3.655 --     3 C    1.307     6 C    1.152     1 C    1.000
                             4 N    0.107
     3   6 C    3.954 --     4 N    1.473     2 N    1.307    17 H    0.962
     4   7 N    3.008 --     3 C    1.473     5 C    1.294     2 N    0.107
     5   6 C    3.965 --     6 C    1.351     4 N    1.294    12 N    1.141
     6   6 C    3.937 --     5 C    1.351     2 N    1.152     7 C    1.106
     7   6 C    3.960 --     8 O    1.657     6 C    1.106     9 N    1.093
     8   8 O    2.012 --     7 C    1.657     9 N    0.147
     9   7 N    3.549 --    10 C    1.113     7 C    1.093    13 C    0.982
                             8 O    0.147    11 O    0.134
    10   6 C    3.960 --    11 O    1.643    12 N    1.127     9 N    1.113
    11   8 O    1.995 --    10 C    1.643    12 N    0.140     9 N    0.134
    12   7 N    3.502 --     5 C    1.141    10 C    1.127    18 H    0.921
                            11 O    0.140
    13   6 C    3.948 --     9 N    0.982    21 H    0.975    19 H    0.974
                            20 H    0.974
    14   1 H    0.993 --     1 C    0.969
    15   1 H    0.993 --     1 C    0.969
    16   1 H    0.995 --     1 C    0.981
    17   1 H    0.996 --     3 C    0.962
    18   1 H    0.953 --    12 N    0.921
    19   1 H    0.993 --    13 C    0.974
    20   1 H    0.995 --    13 C    0.974
    21   1 H    0.993 --    13 C    0.975
 ---------------------------------------------------------------------------

Topologies differ in total number of bonds
Writing topology from bond orders to xtbtopo.mol

molecular dipole:
                 x           y           z       tot (Debye)
 q only:       -1.442      -0.181       0.020
   full:       -1.647      -0.258       0.070       4.240
molecular quadrupole (traceless):
                xx          xy          yy          xz          yz          zz
 q only:        4.403      -2.258      -4.222       0.478       1.778      -0.181
  q+dip:        3.561      -1.361      -6.270       0.294       3.718       2.709
   full:        3.050      -1.317      -7.090       0.247       4.614       4.041

           -------------------------------------------------
          |                Geometry Summary                 |
           -------------------------------------------------

      molecular mass/u    :      180.1643000
   center of mass at/Å    :        0.1708700       0.2730402      -0.0978140
  moments of inertia/u·Å² :        0.3443345E+03   0.6798673E+03   0.1017908E+04
rotational constants/cm⁻¹ :        0.4895714E-01   0.2479547E-01   0.1656106E-01

 * 22 selected distances

     #   Z          #   Z                                           value/Å
     1   6 C        2   7 N                                       1.4344356
     2   7 N        3   6 C                                       1.3440744
     3   6 C        4   7 N                                       1.3174578
     4   7 N        5   6 C                                       1.3481991
     2   7 N        6   6 C                                       1.3753669
     5   6 C        6   6 C                                       1.3870655
     6   6 C        7   6 C                                       1.4338566
     7   6 C        8   8 O                                       1.2149532
     7   6 C        9   7 N                                       1.3999733
     9   7 N       10   6 C                                       1.3884641
    10   6 C       11   8 O                                       1.2088041
     5   6 C       12   7 N                                       1.3599090
    10   6 C       12   7 N                                       1.3773299
     9   7 N       13   6 C                                       1.4541454 (max)
     1   6 C       14   1 H                                       1.0910099
     1   6 C       15   1 H                                       1.0908307
     1   6 C       16   1 H                                       1.0882130
     3   6 C       17   1 H                                       1.0717474
    12   7 N       18   1 H                                       1.0098519 (min)
    13   6 C       19   1 H                                       1.0880160
    13   6 C       20   1 H                                       1.0908237
    13   6 C       21   1 H                                       1.0874079

 * 5 distinct bonds (by element types)

   Z      Z             #   av. dist./Å        max./Å        min./Å
   1 H    6 C           7     1.0868641     1.0910099     1.0717474
   6 C    6 C           2     1.4104611     1.4338566     1.3870655
   1 H    7 N           1     1.0098519     1.0098519     1.0098519
   6 C    7 N          10     1.3799355     1.4541454     1.3174578
   6 C    8 O           2     1.2118786     1.2149532     1.2088041


optimized geometry written to: xtbopt.xyz


           -------------------------------------------------
          | TOTAL ENERGY              -38.982745037417 Eh   |
          | GRADIENT NORM               0.000597670489 Eh/α |
          | HOMO-LUMO GAP               3.562504447688 eV   |
           -------------------------------------------------

------------------------------------------------------------------------
 * finished run on 2024/09/21 at 22:08:09.400     
------------------------------------------------------------------------
 total:
 * wall-time:     0 d,  0 h,  0 min,  0.386 sec
 *  cpu-time:     0 d,  0 h,  0 min,  2.324 sec
 * ratio c/w:     6.018 speedup
 SCF:
 * wall-time:     0 d,  0 h,  0 min,  0.022 sec
 *  cpu-time:     0 d,  0 h,  0 min,  0.141 sec
 * ratio c/w:     6.404 speedup
 ANC optimizer:
 * wall-time:     0 d,  0 h,  0 min,  0.077 sec
 *  cpu-time:     0 d,  0 h,  0 min,  0.586 sec
 * ratio c/w:     7.592 speedup

