      -----------------------------------------------------------      
     |                   =====================                   |     
     |                           x T B                           |     
     |                   =====================                   |     
     |                         S. Grimme                         |     
     |          Mulliken Center for Theoretical Chemistry        |     
     |                    University of Bonn                     |     
      -----------------------------------------------------------      

   * xtb version 6.6.0 (conda-forge) compiled by 'runner@Mac-1676020848589.local' on 2023-02-10

   xtb is free software: you can redistribute it and/or modify it under
   the terms of the GNU Lesser General Public License as published by
   the Free Software Foundation, either version 3 of the License, or
   (at your option) any later version.
   
   xtb is distributed in the hope that it will be useful,
   but WITHOUT ANY WARRANTY; without even the implied warranty of
   MERCHANTABILITY or FITNESS FOR A PARTICULAR PURPOSE.  See the
   GNU Lesser General Public License for more details.
   
   Cite this work as:
   * C. Bannwarth, E. Caldeweyher, S. Ehlert, A. Hansen, P. Pracht,
     J. Seibert, S. Spicher, S. Grimme, WIREs Comput. Mol. Sci., 2020, 11,
     e01493. DOI: 10.1002/wcms.1493
   
   for GFN2-xTB:
   * C. Bannwarth, S. Ehlert and S. Grimme., J. Chem. Theory Comput., 2019,
     15, 1652-1671. DOI: 10.1021/acs.jctc.8b01176
   for GFN1-xTB:
   * S. Grimme, C. Bannwarth, P. Shushkov, J. Chem. Theory Comput., 2017,
     13, 1989-2009. DOI: 10.1021/acs.jctc.7b00118
   for GFN0-xTB:
   * P. Pracht, E. Caldeweyher, S. Ehlert, S. Grimme, ChemRxiv, 2019, preprint.
     DOI: 10.26434/chemrxiv.8326202.v1
   for GFN-FF:
   * S. Spicher and S. Grimme, Angew. Chem. Int. Ed., 2020, 59, 15665-15673.
     DOI: 10.1002/anie.202004239
   
   for ALPB and GBSA implicit solvation:
   * S. Ehlert, M. Stahn, S. Spicher, S. Grimme, J. Chem. Theory Comput.,
     2021, 17, 4250-4261. DOI: 10.1021/acs.jctc.1c00471
   
   for DFT-D4:
   * E. Caldeweyher, C. Bannwarth and S. Grimme, J. Chem. Phys., 2017,
     147, 034112. DOI: 10.1063/1.4993215
   * E. Caldeweyher, S. Ehlert, A. Hansen, H. Neugebauer, S. Spicher,
     C. Bannwarth and S. Grimme, J. Chem. Phys., 2019, 150, 154122.
     DOI: 10.1063/1.5090222
   * E. Caldeweyher, J.-M. Mewes, S. Ehlert and S. Grimme, Phys. Chem. Chem. Phys.
     2020, 22, 8499-8512. DOI: 10.1039/D0CP00502A
   
   for sTDA-xTB:
   * S. Grimme and C. Bannwarth, J. Chem. Phys., 2016, 145, 054103.
     DOI: 10.1063/1.4959605
   
   in the mass-spec context:
   * V. Asgeirsson, C. Bauer and S. Grimme, Chem. Sci., 2017, 8, 4879.
     DOI: 10.1039/c7sc00601b
   * J. Koopman and S. Grimme, ACS Omega 2019, 4, 12, 15120-15133.
     DOI: 10.1021/acsomega.9b02011
   
   for metadynamics refer to:
   * S. Grimme, J. Chem. Theory Comput., 2019, 155, 2847-2862
     DOI: 10.1021/acs.jctc.9b00143
   
   for SPH calculations refer to:
   * S. Spicher and S. Grimme, J. Chem. Theory Comput., 2021, 17, 1701-1714
     DOI: 10.1021/acs.jctc.0c01306
   
   with help from (in alphabetical order)
   P. Atkinson, C. Bannwarth, F. Bohle, G. Brandenburg, E. Caldeweyher
   M. Checinski, S. Dohm, S. Ehlert, S. Ehrlich, I. Gerasimov, C. Hölzer
   A. Katbashev, J. Koopman, C. Lavigne, S. Lehtola, F. März, M. Müller,
   F. Musil, H. Neugebauer, J. Pisarek, C. Plett, P. Pracht, F. Pultar,
   J. Seibert, P. Shushkov, S. Spicher, M. Stahn, M. Steiner, T. Strunk,
   J. Stückrath, T. Rose, and J. Unsleber
   
 * started run on 2024/09/20 at 14:42:15.093     

           -------------------------------------------------
          |                Calculation Setup                |
           -------------------------------------------------

          program call               : xtb myosmine.xyz --opt --gfn2
          coordinate file            : myosmine.xyz
          omp threads                :                     8

   ID    Z sym.   atoms
    1    6 C      1-3, 5-7, 9-11
    2    7 N      4, 8
    3    1 H      12-21

           -------------------------------------------------
          |                 G F N 2 - x T B                 |
           -------------------------------------------------

        Reference                      10.1021/acs.jctc.8b01176
      * Hamiltonian:
        H0-scaling (s, p, d)           1.850000    2.230000    2.230000
        zeta-weighting                 0.500000
      * Dispersion:
        s8                             2.700000
        a1                             0.520000
        a2                             5.000000
        s9                             5.000000
      * Repulsion:
        kExp                           1.500000    1.000000
        rExp                           1.000000
      * Coulomb:
        alpha                          2.000000
        third order                    shell-resolved
        anisotropic                    true
        a3                             3.000000
        a5                             4.000000
        cn-shift                       1.200000
        cn-exp                         4.000000
        max-rad                        5.000000


          ...................................................
          :                      SETUP                      :
          :.................................................:
          :  # basis functions                  54          :
          :  # atomic orbitals                  54          :
          :  # shells                           32          :
          :  # electrons                        56          :
          :  max. iterations                   250          :
          :  Hamiltonian                  GFN2-xTB          :
          :  restarted?                      false          :
          :  GBSA solvation                  false          :
          :  PC potential                    false          :
          :  electronic temp.          300.0000000     K    :
          :  accuracy                    1.0000000          :
          :  -> integral cutoff          0.2500000E+02      :
          :  -> integral neglect         0.1000000E-07      :
          :  -> SCF convergence          0.1000000E-05 Eh   :
          :  -> wf. convergence          0.1000000E-03 e    :
          :  Broyden damping             0.4000000          :
          ...................................................

 iter      E             dE          RMSdq      gap      omega  full diag
   1    -30.6012469 -0.306012E+02  0.387E+00    2.69       0.0  T
   2    -30.6206825 -0.194355E-01  0.239E+00    2.69       1.0  T
   3    -30.6129972  0.768527E-02  0.917E-01    2.35       1.0  T
   4    -30.6233688 -0.103717E-01  0.336E-01    2.40       1.0  T
   5    -30.6248244 -0.145559E-02  0.873E-02    2.39       1.0  T
   6    -30.6248983 -0.739089E-04  0.368E-02    2.39       1.0  T
   7    -30.6249032 -0.486633E-05  0.184E-02    2.38       1.2  T
   8    -30.6249066 -0.334837E-05  0.487E-03    2.39       4.5  T
   9    -30.6249068 -0.214222E-06  0.158E-03    2.38      13.8  T
  10    -30.6249068 -0.211219E-07  0.811E-04    2.38      26.9  T
  11    -30.6249068 -0.210691E-08  0.192E-04    2.38     113.8  T

   *** convergence criteria satisfied after 11 iterations ***

         #    Occupation            Energy/Eh            Energy/eV
      -------------------------------------------------------------
         1        2.0000           -0.6618310             -18.0093
       ...           ...                  ...                  ...
        22        2.0000           -0.4558131             -12.4033
        23        2.0000           -0.4424590             -12.0399
        24        2.0000           -0.4360402             -11.8653
        25        2.0000           -0.4266217             -11.6090
        26        2.0000           -0.4000706             -10.8865
        27        2.0000           -0.3776096             -10.2753
        28        2.0000           -0.3644642              -9.9176 (HOMO)
        29                         -0.2768174              -7.5326 (LUMO)
        30                         -0.2547695              -6.9326
        31                         -0.2022993              -5.5048
        32                         -0.1108199              -3.0156
        33                          0.0304449               0.8284
       ...                                ...                  ...
        54                          0.5873104              15.9815
      -------------------------------------------------------------
                  HL-Gap            0.0876467 Eh            2.3850 eV
             Fermi-level           -0.3206408 Eh           -8.7251 eV

 SCC (total)                   0 d,  0 h,  0 min,  0.014 sec
 SCC setup                      ...        0 min,  0.001 sec (  5.374%)
 Dispersion                     ...        0 min,  0.000 sec (  1.609%)
 classical contributions        ...        0 min,  0.000 sec (  0.428%)
 integral evaluation            ...        0 min,  0.001 sec (  4.313%)
 iterations                     ...        0 min,  0.010 sec ( 73.125%)
 molecular gradient             ...        0 min,  0.002 sec ( 13.106%)
 printout                       ...        0 min,  0.000 sec (  1.905%)

         :::::::::::::::::::::::::::::::::::::::::::::::::::::
         ::                     SUMMARY                     ::
         :::::::::::::::::::::::::::::::::::::::::::::::::::::
         :: total energy             -30.187023014718 Eh    ::
         :: gradient norm              0.086375666274 Eh/a0 ::
         :: HOMO-LUMO gap              2.384989059836 eV    ::
         ::.................................................::
         :: SCC energy               -30.624906789297 Eh    ::
         :: -> isotropic ES            0.016710397830 Eh    ::
         :: -> anisotropic ES          0.004490254944 Eh    ::
         :: -> anisotropic XC          0.030728703123 Eh    ::
         :: -> dispersion             -0.017605167961 Eh    ::
         :: repulsion energy           0.437885806268 Eh    ::
         :: add. restraining           0.000000000000 Eh    ::
         :: total charge              -0.000000000000 e     ::
         :::::::::::::::::::::::::::::::::::::::::::::::::::::

      ----------------------------------------------------------- 
     |                   =====================                   |
     |                        A N C O P T                        |
     |                   =====================                   |
     |               Approximate Normal Coordinate               |
     |                Rational Function Optimizer                |
      ----------------------------------------------------------- 

          ...................................................
          :                      SETUP                      :
          :.................................................:
          :   optimization level            normal          :
          :   max. optcycles                   200          :
          :   ANC micro-cycles                  20          :
          :   degrees of freedom                57          :
          :.................................................:
          :   RF solver                   davidson          :
          :   write xtbopt.log                true          :
          :   linear?                        false          :
          :   energy convergence         0.5000000E-05 Eh   :
          :   grad. convergence          0.1000000E-02 Eh/α :
          :   maxmium RF displ.          1.0000000          :
          :   Hlow (freq-cutoff)         0.1000000E-01      :
          :   Hmax (freq-cutoff)         5.0000000          :
          :   S6 in model hess.         20.0000000          :
          ...................................................

generating ANC from model Hessian ...
Using Lindh-Hessian (1995)
 Shifting diagonal of input Hessian by    8.0275351212092984E-003
 Lowest  eigenvalues of input Hessian
    0.000000    0.000000    0.000000    0.000000    0.000000    0.000000
    0.010000    0.010306    0.013008    0.016053    0.022925    0.025242
    0.032063    0.032621    0.043542    0.047442    0.048935    0.054953
 Highest eigenvalues
    1.503914    1.597239    1.823754    1.924294    1.929369    2.021251


........................................................................
.............................. CYCLE    1 ..............................
........................................................................

 iter      E             dE          RMSdq      gap      omega  full diag
   1    -30.6249068 -0.306249E+02  0.849E-05    2.38       0.0  T
   2    -30.6249068 -0.122782E-10  0.513E-05    2.38     425.1  T
   3    -30.6249068  0.110845E-11  0.276E-05    2.38     789.6  T
     SCC iter.                  ...        0 min,  0.002 sec
     gradient                   ...        0 min,  0.001 sec
 * total energy  :   -30.1870230 Eh     change       -0.2326992E-09 Eh
   gradient norm :     0.0863764 Eh/α   predicted     0.0000000E+00 (-100.00%)
   displ. norm   :     0.3005789 α      lambda       -0.1476744E-01
   maximum displ.:     0.1530456 α      in ANC's #8, #31, #15, ...

........................................................................
.............................. CYCLE    2 ..............................
........................................................................

 iter      E             dE          RMSdq      gap      omega  full diag
   1    -30.6650772 -0.306651E+02  0.328E-01    2.46       0.0  T
   2    -30.6652318 -0.154614E-03  0.204E-01    2.50       1.0  T
   3    -30.6651333  0.984802E-04  0.949E-02    2.47       1.0  T
   4    -30.6652783 -0.144941E-03  0.231E-02    2.49       1.0  T
   5    -30.6652867 -0.839779E-05  0.673E-03    2.49       3.2  T
   6    -30.6652867 -0.270320E-07  0.319E-03    2.49       6.8  T
   7    -30.6652868 -0.885438E-07  0.113E-03    2.49      19.4  T
   8    -30.6652868 -0.110621E-07  0.254E-04    2.49      85.8  T
   9    -30.6652868 -0.311022E-09  0.108E-04    2.49     202.3  T
     SCC iter.                  ...        0 min,  0.004 sec
     gradient                   ...        0 min,  0.001 sec
 * total energy  :   -30.1964197 Eh     change       -0.9396662E-02 Eh
   gradient norm :     0.0287709 Eh/α   predicted    -0.8052368E-02 ( -14.31%)
   displ. norm   :     0.1617560 α      lambda       -0.1948230E-02
   maximum displ.:     0.1270013 α      in ANC's #8, #3, #22, ...

........................................................................
.............................. CYCLE    3 ..............................
........................................................................

 iter      E             dE          RMSdq      gap      omega  full diag
   1    -30.6798012 -0.306798E+02  0.138E-01    2.51       0.0  T
   2    -30.6798319 -0.307276E-04  0.867E-02    2.53       1.0  T
   3    -30.6798161  0.158134E-04  0.393E-02    2.51       1.0  T
   4    -30.6798406 -0.244845E-04  0.993E-03    2.52       2.2  T
   5    -30.6798421 -0.149772E-05  0.290E-03    2.52       7.5  T
   6    -30.6798421 -0.495697E-08  0.135E-03    2.52      16.1  T
   7    -30.6798421 -0.175323E-07  0.486E-04    2.52      44.9  T
   8    -30.6798421 -0.208001E-08  0.105E-04    2.52     207.1  T
     SCC iter.                  ...        0 min,  0.004 sec
     gradient                   ...        0 min,  0.001 sec
 * total energy  :   -30.1974155 Eh     change       -0.9958595E-03 Eh
   gradient norm :     0.0073285 Eh/α   predicted    -0.1000168E-02 (   0.43%)
   displ. norm   :     0.0490959 α      lambda       -0.9179807E-04
   maximum displ.:     0.0412415 α      in ANC's #3, #8, #17, ...

........................................................................
.............................. CYCLE    4 ..............................
........................................................................

 iter      E             dE          RMSdq      gap      omega  full diag
   1    -30.6793655 -0.306794E+02  0.207E-02    2.52       0.0  T
   2    -30.6793658 -0.333661E-06  0.129E-02    2.52       1.7  T
   3    -30.6793655  0.321032E-06  0.544E-03    2.52       4.0  T
   4    -30.6793659 -0.449944E-06  0.830E-04    2.52      26.3  T
   5    -30.6793659 -0.558274E-08  0.342E-04    2.52      63.8  T
     SCC iter.                  ...        0 min,  0.002 sec
     gradient                   ...        0 min,  0.001 sec
 * total energy  :   -30.1974824 Eh     change       -0.6687052E-04 Eh
   gradient norm :     0.0033903 Eh/α   predicted    -0.4613607E-04 ( -31.01%)
   displ. norm   :     0.0657620 α      lambda       -0.5117353E-04
   maximum displ.:     0.0625132 α      in ANC's #3, #8, #17, ...

........................................................................
.............................. CYCLE    5 ..............................
........................................................................

 iter      E             dE          RMSdq      gap      omega  full diag
   1    -30.6787658 -0.306788E+02  0.208E-02    2.52       0.0  T
   2    -30.6787661 -0.225253E-06  0.126E-02    2.52       1.7  T
   3    -30.6787657  0.364810E-06  0.562E-03    2.52       3.9  T
   4    -30.6787662 -0.494092E-06  0.738E-04    2.52      29.6  T
   5    -30.6787662 -0.290177E-08  0.366E-04    2.52      59.6  T
     SCC iter.                  ...        0 min,  0.004 sec
     gradient                   ...        0 min,  0.001 sec
 * total energy  :   -30.1975117 Eh     change       -0.2932339E-04 Eh
   gradient norm :     0.0014801 Eh/α   predicted    -0.2571002E-04 ( -12.32%)
   displ. norm   :     0.0314699 α      lambda       -0.5442185E-05
   maximum displ.:     0.0312118 α      in ANC's #3, #19, #8, ...

........................................................................
.............................. CYCLE    6 ..............................
........................................................................

 iter      E             dE          RMSdq      gap      omega  full diag
   1    -30.6787801 -0.306788E+02  0.753E-03    2.51       0.0  T
   2    -30.6787801 -0.429378E-07  0.472E-03    2.52       4.6  T
   3    -30.6787801  0.667046E-07  0.227E-03    2.52       9.6  T
   4    -30.6787802 -0.949942E-07  0.377E-04    2.52      57.8  T
   5    -30.6787802 -0.112847E-08  0.152E-04    2.52     143.5  T
     SCC iter.                  ...        0 min,  0.002 sec
     gradient                   ...        0 min,  0.001 sec
 * total energy  :   -30.1975171 Eh     change       -0.5372152E-05 Eh
   gradient norm :     0.0009322 Eh/α   predicted    -0.2727388E-05 ( -49.23%)
   displ. norm   :     0.0128946 α      lambda       -0.1582574E-05
   maximum displ.:     0.0125346 α      in ANC's #3, #17, #8, ...

........................................................................
.............................. CYCLE    7 ..............................
........................................................................

 iter      E             dE          RMSdq      gap      omega  full diag
   1    -30.6788991 -0.306789E+02  0.383E-03    2.51       0.0  T
   2    -30.6788991 -0.164354E-07  0.232E-03    2.52       9.4  T
   3    -30.6788991  0.842946E-08  0.927E-04    2.52      23.5  T
   4    -30.6788991 -0.128136E-07  0.238E-04    2.52      91.6  T
     SCC iter.                  ...        0 min,  0.001 sec
     gradient                   ...        0 min,  0.002 sec
 * total energy  :   -30.1975186 Eh     change       -0.1465862E-05 Eh
   gradient norm :     0.0002701 Eh/α   predicted    -0.8343203E-06 ( -43.08%)
   displ. norm   :     0.0069065 α      lambda       -0.2784383E-06
   maximum displ.:     0.0068035 α      in ANC's #3, #17, #8, ...

   *** GEOMETRY OPTIMIZATION CONVERGED AFTER 7 ITERATIONS ***

------------------------------------------------------------------------
 total energy gain   :        -0.0104956 Eh       -6.5861 kcal/mol
 total RMSD          :         0.1105475 a0        0.0585 Å
 total power (kW/mol):        -3.9365817 (step) -687.8201 (real)
------------------------------------------------------------------------

 ANCopt (total)                0 d,  0 h,  0 min,  0.040 sec
 optimizer setup                ...        0 min,  0.000 sec (  0.309%)
 model hessian                  ...        0 min,  0.004 sec (  9.277%)
 ANC generation                 ...        0 min,  0.001 sec (  1.375%)
 coordinate transformation      ...        0 min,  0.000 sec (  0.092%)
 single point calculation       ...        0 min,  0.034 sec ( 84.210%)
 optimization log               ...        0 min,  0.001 sec (  2.046%)
 hessian update                 ...        0 min,  0.000 sec (  0.261%)
 rational function              ...        0 min,  0.001 sec (  1.603%)

================
 final structure:
================
21
 xtb: 6.6.0 (conda-forge)
C           -2.82152379915594        0.42296608165017       -0.41570042599101
C           -1.37346548767136        0.89270712706316       -0.60802422692877
C           -0.58278243010989       -0.19950602337267        0.08358422687351
N           -1.27965154408640       -1.12990381845709        0.59217257953654
C           -2.67909684525811       -0.90277239631810        0.37575004273519
C            0.87094698670629       -0.19008906695991        0.16349117071806
C            1.54855919024406       -1.22718578320696        0.81587514564313
N            2.85879041570154       -1.28791059805280        0.92873302252457
C            3.58028560817623       -0.31402669205823        0.39591637120088
C            3.02287720922324        0.76464077108984       -0.27392275141263
C            1.64522437616181        0.82809924393694       -0.39237250328482
H           -3.31702683695318        0.25305311869736       -1.36990435418948
H           -3.40619274185056        1.14881796754468        0.14661599997987
H           -1.09222993880198        0.96027408341448       -1.66018259611930
H           -1.18168349956420        1.85895624968386       -0.13868616398533
H           -3.08578531573310       -1.76162501594189       -0.16498363486639
H           -3.17481722926985       -0.86699729201642        1.34960737078500
H            0.98316690277937       -2.03435023243574        1.25933492977036
H            4.65187511672603       -0.40757195797216        0.51419402018339
H            3.65071950474097        1.53628520486987       -0.69275576292047
H            1.18171035799503        1.65623902884161       -0.90874246025227

 Bond Distances (Angstroems)
 ---------------------------
C1-C2=1.5344         C1-C5=1.5506         C1-H12=1.0885        C1-H13=1.0885        C2-C1=1.5344         C2-C3=1.5154         
C2-H14=1.0912        C2-H15=1.0912        C3-C2=1.5154         C3-N4=1.2688         C3-C6=1.4560         N4-C3=1.2688         
N4-C5=1.4342         C5-C1=1.5506         C5-N4=1.4342         C5-H16=1.0934        C5-H17=1.0934        C6-C3=1.4560         
C6-C7=1.4001         C6-C11=1.3947        C7-C6=1.4001         C7-N8=1.3165         C7-H18=1.0807        N8-C7=1.3165         
N8-C9=1.3240         C9-N8=1.3240         C9-C10=1.3867        C9-H19=1.0821        C10-C9=1.3867        C10-C11=1.3842       
C10-H20=1.0794       C11-C6=1.3947        C11-C10=1.3842       C11-H21=1.0804       H12-C1=1.0885        H13-C1=1.0885        
H14-C2=1.0912        H15-C2=1.0912        H16-C5=1.0934        H17-C5=1.0934        H18-C7=1.0807        H19-C9=1.0821        
H20-C10=1.0794       H21-C11=1.0804       
 C  H  Rav=1.0869 sigma=0.0053  Rmin=1.0794  Rmax=1.0934    10
 C  C  Rav=1.4528 sigma=0.0665  Rmin=1.3842  Rmax=1.5506     8
 N  C  Rav=1.3359 sigma=0.0606  Rmin=1.2688  Rmax=1.4342     4

 selected bond angles (degree)
 --------------------
C5-C1-C2=103.83                H12-C1-C2=111.56               H12-C1-C5=110.84               H13-C1-C2=111.56               
H13-C1-C5=110.84               H13-C1-H12=108.21              C3-C2-C1=102.39                H14-C2-C1=112.52               
H14-C2-C3=110.50               H15-C2-C1=112.52               H15-C2-C3=110.50               H15-C2-H14=108.34              
N4-C3-C2=115.14                C6-C3-C2=122.78                C6-C3-N4=122.08                C5-N4-C3=111.06                
N4-C5-C1=107.58                H16-C5-C1=112.64               H16-C5-N4=108.25               H17-C5-C1=112.64               
H17-C5-N4=108.25               H17-C5-H16=107.31              C7-C6-C3=120.27                C11-C6-C3=122.49               
C11-C6-C7=117.24               N8-C7-C6=123.76                H18-C7-C6=119.42               H18-C7-N8=116.81               
C9-N8-C7=118.29                C10-C9-N8=123.20               H19-C9-N8=115.60               H19-C9-C10=121.20              
C11-C10-C9=118.49              H20-C10-C9=120.65              H20-C10-C11=120.86             

 selected dihedral angles (degree)
 ---------------------------------
C3-C2-C1-C5=  0.00            C3-C2-C1-H12=240.58           C3-C2-C1-H13=119.42           H14-C2-C1-C5=118.64           
H14-C2-C1-H12=359.21          H14-C2-C1-H13=238.06          H15-C2-C1-C5=241.36           H15-C2-C1-H12=121.94          
H15-C2-C1-H13=  0.79          N4-C3-C2-C1=  0.00            N4-C3-C2-H14=239.95           N4-C3-C2-H15=120.05           
C6-C3-C2-C1=180.00            C6-C3-C2-H14= 59.95           C6-C3-C2-H15=300.05           C5-N4-C3-C2=  0.00            
C5-N4-C3-C6=180.00            N4-C5-C1-C2=  0.00            N4-C5-C1-H12=119.91           N4-C5-C1-H13=240.09           
H16-C5-C1-C2=240.78           H16-C5-C1-H12=  0.69          H16-C5-C1-H13=120.87          H17-C5-C1-C2=119.22           
H17-C5-C1-H12=239.13          H17-C5-C1-H13=359.31          C1-C5-N4-C3=  0.00            H16-C5-N4-C3=121.99           
H17-C5-N4-C3=238.01           C7-C6-C3-C2=180.00            C7-C6-C3-N4=  0.00            C11-C6-C3-C2=  0.00           
C11-C6-C3-N4=180.00           N8-C7-C6-C3=180.00            N8-C7-C6-C11=  0.00           H18-C7-C6-C3=  0.00           
H18-C7-C6-C11=180.00          C9-N8-C7-C6=  0.00            C9-N8-C7-H18=180.00           C10-C9-N8-C7=  0.00           
H19-C9-N8-C7=180.00           C11-C10-C9-N8=  0.00          C11-C10-C9-H19=180.00         H20-C10-C9-N8=180.00          
H20-C10-C9-H19=  0.00         
           -------------------------------------------------
          |                Final Singlepoint                |
           -------------------------------------------------

          ...................................................
          :                      SETUP                      :
          :.................................................:
          :  # basis functions                  54          :
          :  # atomic orbitals                  54          :
          :  # shells                           32          :
          :  # electrons                        56          :
          :  max. iterations                   250          :
          :  Hamiltonian                  GFN2-xTB          :
          :  restarted?                      false          :
          :  GBSA solvation                  false          :
          :  PC potential                    false          :
          :  electronic temp.          300.0000000     K    :
          :  accuracy                    1.0000000          :
          :  -> integral cutoff          0.2500000E+02      :
          :  -> integral neglect         0.1000000E-07      :
          :  -> SCF convergence          0.1000000E-05 Eh   :
          :  -> wf. convergence          0.1000000E-03 e    :
          :  Broyden damping             0.4000000          :
          ...................................................

 iter      E             dE          RMSdq      gap      omega  full diag
   1    -30.6788991 -0.306789E+02  0.907E-05    2.52       0.0  T
   2    -30.6788991 -0.959588E-11  0.539E-05    2.52     404.7  T
   3    -30.6788991  0.340350E-11  0.286E-05    2.52     763.7  T

   *** convergence criteria satisfied after 3 iterations ***

         #    Occupation            Energy/Eh            Energy/eV
      -------------------------------------------------------------
         1        2.0000           -0.6674560             -18.1624
       ...           ...                  ...                  ...
        22        2.0000           -0.4555312             -12.3956
        23        2.0000           -0.4407878             -11.9944
        24        2.0000           -0.4387475             -11.9389
        25        2.0000           -0.4280515             -11.6479
        26        2.0000           -0.4003087             -10.8930
        27        2.0000           -0.3815155             -10.3816
        28        2.0000           -0.3669440              -9.9851 (HOMO)
        29                         -0.2745098              -7.4698 (LUMO)
        30                         -0.2481180              -6.7516
        31                         -0.1943778              -5.2893
        32                         -0.0984224              -2.6782
        33                          0.0421094               1.1459
       ...                                ...                  ...
        54                          0.6418187              17.4648
      -------------------------------------------------------------
                  HL-Gap            0.0924342 Eh            2.5153 eV
             Fermi-level           -0.3207269 Eh           -8.7274 eV

 SCC (total)                   0 d,  0 h,  0 min,  0.004 sec
 SCC setup                      ...        0 min,  0.000 sec (  4.345%)
 Dispersion                     ...        0 min,  0.000 sec (  2.842%)
 classical contributions        ...        0 min,  0.000 sec (  1.110%)
 integral evaluation            ...        0 min,  0.001 sec ( 16.776%)
 iterations                     ...        0 min,  0.001 sec ( 39.968%)
 molecular gradient             ...        0 min,  0.001 sec ( 32.869%)
 printout                       ...        0 min,  0.000 sec (  1.820%)

         :::::::::::::::::::::::::::::::::::::::::::::::::::::
         ::                     SUMMARY                     ::
         :::::::::::::::::::::::::::::::::::::::::::::::::::::
         :: total energy             -30.197518568716 Eh    ::
         :: gradient norm              0.000269477888 Eh/a0 ::
         :: HOMO-LUMO gap              2.515262142475 eV    ::
         ::.................................................::
         :: SCC energy               -30.678899129679 Eh    ::
         :: -> isotropic ES            0.015912901093 Eh    ::
         :: -> anisotropic ES          0.004065271639 Eh    ::
         :: -> anisotropic XC          0.028084916635 Eh    ::
         :: -> dispersion             -0.017786766910 Eh    ::
         :: repulsion energy           0.481379173109 Eh    ::
         :: add. restraining           0.000000000000 Eh    ::
         :: total charge              -0.000000000000 e     ::
         :::::::::::::::::::::::::::::::::::::::::::::::::::::

           -------------------------------------------------
          |                Property Printout                |
           -------------------------------------------------

    * Orbital Energies and Occupations

         #    Occupation            Energy/Eh            Energy/eV
      -------------------------------------------------------------
         1        2.0000           -0.6674560             -18.1624
       ...           ...                  ...                  ...
        16        2.0000           -0.4994930             -13.5919
        17        2.0000           -0.4910646             -13.3625
        18        2.0000           -0.4802332             -13.0678
        19        2.0000           -0.4753863             -12.9359
        20        2.0000           -0.4744797             -12.9113
        21        2.0000           -0.4643033             -12.6343
        22        2.0000           -0.4555312             -12.3956
        23        2.0000           -0.4407878             -11.9944
        24        2.0000           -0.4387475             -11.9389
        25        2.0000           -0.4280515             -11.6479
        26        2.0000           -0.4003087             -10.8930
        27        2.0000           -0.3815155             -10.3816
        28        2.0000           -0.3669440              -9.9851 (HOMO)
        29                         -0.2745098              -7.4698 (LUMO)
        30                         -0.2481180              -6.7516
        31                         -0.1943778              -5.2893
        32                         -0.0984224              -2.6782
        33                          0.0421094               1.1459
        34                          0.0674221               1.8346
        35                          0.0990978               2.6966
        36                          0.1091374               2.9698
        37                          0.1122256               3.0538
        38                          0.1237210               3.3666
        39                          0.1419570               3.8628
       ...                                ...                  ...
        54                          0.6418187              17.4648
      -------------------------------------------------------------
                  HL-Gap            0.0924342 Eh            2.5153 eV
             Fermi-level           -0.3207269 Eh           -8.7274 eV

     #   Z          covCN         q      C6AA      α(0)
     1   6 C        3.824    -0.063    21.697     6.628
     2   6 C        3.823    -0.066    21.743     6.636
     3   6 C        3.006     0.102    25.735     8.322
     4   7 N        1.844    -0.248    27.305     7.744
     5   6 C        3.849     0.016    20.275     6.405
     6   6 C        2.972    -0.005    28.141     8.702
     7   6 C        2.919     0.063    26.592     8.456
     8   7 N        1.835    -0.211    26.422     7.617
     9   6 C        2.914     0.060    26.659     8.467
    10   6 C        2.912    -0.039    28.971     8.826
    11   6 C        2.931    -0.016    28.412     8.742
    12   1 H        0.925     0.031     2.573     2.508
    13   1 H        0.925     0.031     2.573     2.508
    14   1 H        0.924     0.038     2.469     2.457
    15   1 H        0.924     0.038     2.469     2.457
    16   1 H        0.924     0.044     2.391     2.418
    17   1 H        0.924     0.044     2.391     2.418
    18   1 H        0.926     0.064     2.154     2.295
    19   1 H        0.925     0.042     2.418     2.432
    20   1 H        0.926     0.037     2.486     2.466
    21   1 H        0.926     0.036     2.498     2.472

 Mol. C6AA /au·bohr⁶  :       5059.433889
 Mol. C8AA /au·bohr⁸  :     119593.899476
 Mol. α(0) /au        :        110.975782


Wiberg/Mayer (AO) data.
largest (>0.10) Wiberg bond orders for each atom

 ---------------------------------------------------------------------------
     #   Z sym  total        # sym  WBO       # sym  WBO       # sym  WBO
 ---------------------------------------------------------------------------
     1   6 C    3.997 --     2 C    1.009    13 H    0.985    12 H    0.985
                             5 C    0.984
     2   6 C    3.998 --     1 C    1.009     3 C    0.986    14 H    0.965
                            15 H    0.965
     3   6 C    3.971 --     4 N    1.803     6 C    1.071     2 C    0.986
     4   7 N    3.066 --     3 C    1.803     5 C    1.038
     5   6 C    3.987 --     4 N    1.038     1 C    0.984    16 H    0.959
                            17 H    0.959
     6   6 C    3.990 --    11 C    1.388     7 C    1.351     3 C    1.071
                             9 C    0.106
     7   6 C    3.976 --     8 N    1.468     6 C    1.351    18 H    0.960
                            10 C    0.110
     8   7 N    3.068 --     7 C    1.468     9 C    1.424
     9   6 C    3.978 --     8 N    1.424    10 C    1.423    19 H    0.964
                             6 C    0.106
    10   6 C    3.992 --    11 C    1.452     9 C    1.423    20 H    0.970
                             7 C    0.110
    11   6 C    3.987 --    10 C    1.452     6 C    1.388    21 H    0.967
    12   1 H    0.999 --     1 C    0.985
    13   1 H    0.999 --     1 C    0.985
    14   1 H    0.999 --     2 C    0.965
    15   1 H    0.999 --     2 C    0.965
    16   1 H    0.994 --     5 C    0.959
    17   1 H    0.994 --     5 C    0.959
    18   1 H    0.996 --     7 C    0.960
    19   1 H    0.998 --     9 C    0.964
    20   1 H    0.998 --    10 C    0.970
    21   1 H    0.999 --    11 C    0.967
 ---------------------------------------------------------------------------

Topologies differ in total number of bonds
Writing topology from bond orders to xtbtopo.mol

molecular dipole:
                 x           y           z       tot (Debye)
 q only:       -0.172       0.563      -0.343
   full:       -0.457       1.212      -0.742       3.794
molecular quadrupole (traceless):
                xx          xy          yy          xz          yz          zz
 q only:        3.305       2.625      -1.539      -1.260       0.098      -1.767
  q+dip:        4.223       5.299      -2.209      -2.801       0.806      -2.013
   full:        3.403       5.290      -2.915      -3.005       2.840      -0.487

           -------------------------------------------------
          |                Geometry Summary                 |
           -------------------------------------------------

      molecular mass/u    :      146.1894370
   center of mass at/Å    :        0.3820865      -0.2093525       0.1461177
  moments of inertia/u·Å² :        0.1521034E+03   0.7498530E+03   0.8925392E+03
rotational constants/cm⁻¹ :        0.1108301E+00   0.2248125E-01   0.1888727E-01

 * 19 selected distances

     #   Z          #   Z                                           value/Å
     1   6 C        2   6 C                                       1.5344440 (max)
     3   6 C        4   7 N                                       1.2688298
     4   7 N        5   6 C                                       1.4341809
     6   6 C        7   6 C                                       1.4001190
     7   6 C        8   7 N                                       1.3164842
     8   7 N        9   6 C                                       1.3239710
     9   6 C       10   6 C                                       1.3866912
     6   6 C       11   6 C                                       1.3947034
    10   6 C       11   6 C                                       1.3841911
     1   6 C       12   1 H                                       1.0885307
     1   6 C       13   1 H                                       1.0885305
     2   6 C       14   1 H                                       1.0911903
     2   6 C       15   1 H                                       1.0911902
     5   6 C       16   1 H                                       1.0933510
     5   6 C       17   1 H                                       1.0933512
     7   6 C       18   1 H                                       1.0806663
     9   6 C       19   1 H                                       1.0821481
    10   6 C       20   1 H                                       1.0793713 (min)
    11   6 C       21   1 H                                       1.0804161

 * 3 distinct bonds (by element types)

   Z      Z             #   av. dist./Å        max./Å        min./Å
   1 H    6 C          10     1.0868746     1.0933512     1.0793713
   6 C    6 C           5     1.4200297     1.5344440     1.3841911
   6 C    7 N           4     1.3358665     1.4341809     1.2688298


optimized geometry written to: xtbopt.xyz


           -------------------------------------------------
          | TOTAL ENERGY              -30.197518568716 Eh   |
          | GRADIENT NORM               0.000269477888 Eh/α |
          | HOMO-LUMO GAP               2.515262142475 eV   |
           -------------------------------------------------
########################################################################
[WARNING] Runtime exception occurred
-2- restart_readRestart: Dimension missmatch in restart file.
-1- restart_readRestart: Number of electron missmatch in restart file.
########################################################################

------------------------------------------------------------------------
 * finished run on 2024/09/20 at 14:42:15.334     
------------------------------------------------------------------------
 total:
 * wall-time:     0 d,  0 h,  0 min,  0.240 sec
 *  cpu-time:     0 d,  0 h,  0 min,  1.803 sec
 * ratio c/w:     7.501 speedup
 SCF:
 * wall-time:     0 d,  0 h,  0 min,  0.014 sec
 *  cpu-time:     0 d,  0 h,  0 min,  0.088 sec
 * ratio c/w:     6.392 speedup
 ANC optimizer:
 * wall-time:     0 d,  0 h,  0 min,  0.045 sec
 *  cpu-time:     0 d,  0 h,  0 min,  0.334 sec
 * ratio c/w:     7.504 speedup

