      -----------------------------------------------------------      
     |                   =====================                   |     
     |                           x T B                           |     
     |                   =====================                   |     
     |                         S. Grimme                         |     
     |          Mulliken Center for Theoretical Chemistry        |     
     |                    University of Bonn                     |     
      -----------------------------------------------------------      

   * xtb version 6.6.0 (conda-forge) compiled by 'runner@Mac-1676020848589.local' on 2023-02-10

   xtb is free software: you can redistribute it and/or modify it under
   the terms of the GNU Lesser General Public License as published by
   the Free Software Foundation, either version 3 of the License, or
   (at your option) any later version.
   
   xtb is distributed in the hope that it will be useful,
   but WITHOUT ANY WARRANTY; without even the implied warranty of
   MERCHANTABILITY or FITNESS FOR A PARTICULAR PURPOSE.  See the
   GNU Lesser General Public License for more details.
   
   Cite this work as:
   * C. Bannwarth, E. Caldeweyher, S. Ehlert, A. Hansen, P. Pracht,
     J. Seibert, S. Spicher, S. Grimme, WIREs Comput. Mol. Sci., 2020, 11,
     e01493. DOI: 10.1002/wcms.1493
   
   for GFN2-xTB:
   * C. Bannwarth, S. Ehlert and S. Grimme., J. Chem. Theory Comput., 2019,
     15, 1652-1671. DOI: 10.1021/acs.jctc.8b01176
   for GFN1-xTB:
   * S. Grimme, C. Bannwarth, P. Shushkov, J. Chem. Theory Comput., 2017,
     13, 1989-2009. DOI: 10.1021/acs.jctc.7b00118
   for GFN0-xTB:
   * P. Pracht, E. Caldeweyher, S. Ehlert, S. Grimme, ChemRxiv, 2019, preprint.
     DOI: 10.26434/chemrxiv.8326202.v1
   for GFN-FF:
   * S. Spicher and S. Grimme, Angew. Chem. Int. Ed., 2020, 59, 15665-15673.
     DOI: 10.1002/anie.202004239
   
   for ALPB and GBSA implicit solvation:
   * S. Ehlert, M. Stahn, S. Spicher, S. Grimme, J. Chem. Theory Comput.,
     2021, 17, 4250-4261. DOI: 10.1021/acs.jctc.1c00471
   
   for DFT-D4:
   * E. Caldeweyher, C. Bannwarth and S. Grimme, J. Chem. Phys., 2017,
     147, 034112. DOI: 10.1063/1.4993215
   * E. Caldeweyher, S. Ehlert, A. Hansen, H. Neugebauer, S. Spicher,
     C. Bannwarth and S. Grimme, J. Chem. Phys., 2019, 150, 154122.
     DOI: 10.1063/1.5090222
   * E. Caldeweyher, J.-M. Mewes, S. Ehlert and S. Grimme, Phys. Chem. Chem. Phys.
     2020, 22, 8499-8512. DOI: 10.1039/D0CP00502A
   
   for sTDA-xTB:
   * S. Grimme and C. Bannwarth, J. Chem. Phys., 2016, 145, 054103.
     DOI: 10.1063/1.4959605
   
   in the mass-spec context:
   * V. Asgeirsson, C. Bauer and S. Grimme, Chem. Sci., 2017, 8, 4879.
     DOI: 10.1039/c7sc00601b
   * J. Koopman and S. Grimme, ACS Omega 2019, 4, 12, 15120-15133.
     DOI: 10.1021/acsomega.9b02011
   
   for metadynamics refer to:
   * S. Grimme, J. Chem. Theory Comput., 2019, 155, 2847-2862
     DOI: 10.1021/acs.jctc.9b00143
   
   for SPH calculations refer to:
   * S. Spicher and S. Grimme, J. Chem. Theory Comput., 2021, 17, 1701-1714
     DOI: 10.1021/acs.jctc.0c01306
   
   with help from (in alphabetical order)
   P. Atkinson, C. Bannwarth, F. Bohle, G. Brandenburg, E. Caldeweyher
   M. Checinski, S. Dohm, S. Ehlert, S. Ehrlich, I. Gerasimov, C. Hölzer
   A. Katbashev, J. Koopman, C. Lavigne, S. Lehtola, F. März, M. Müller,
   F. Musil, H. Neugebauer, J. Pisarek, C. Plett, P. Pracht, F. Pultar,
   J. Seibert, P. Shushkov, S. Spicher, M. Stahn, M. Steiner, T. Strunk,
   J. Stückrath, T. Rose, and J. Unsleber
   
 * started run on 2024/09/20 at 14:37:21.411     

           -------------------------------------------------
          |                Calculation Setup                |
           -------------------------------------------------

          program call               : xtb diclofenac.xyz --opt --gfn2
          coordinate file            : diclofenac.xyz
          omp threads                :                     8

   ID    Z sym.   atoms
    1    6 C      1-8, 12-17
    2    8 O      9, 10
    3    7 N      11
    4   17 Cl     18, 19
    5    1 H      20-30

           -------------------------------------------------
          |                 G F N 2 - x T B                 |
           -------------------------------------------------

        Reference                      10.1021/acs.jctc.8b01176
      * Hamiltonian:
        H0-scaling (s, p, d)           1.850000    2.230000    2.230000
        zeta-weighting                 0.500000
      * Dispersion:
        s8                             2.700000
        a1                             0.520000
        a2                             5.000000
        s9                             5.000000
      * Repulsion:
        kExp                           1.500000    1.000000
        rExp                           1.000000
      * Coulomb:
        alpha                          2.000000
        third order                    shell-resolved
        anisotropic                    true
        a3                             3.000000
        a5                             4.000000
        cn-shift                       1.200000
        cn-exp                         4.000000
        max-rad                        5.000000


          ...................................................
          :                      SETUP                      :
          :.................................................:
          :  # basis functions                  99          :
          :  # atomic orbitals                  97          :
          :  # shells                           51          :
          :  # electrons                        98          :
          :  max. iterations                   250          :
          :  Hamiltonian                  GFN2-xTB          :
          :  restarted?                      false          :
          :  GBSA solvation                  false          :
          :  PC potential                    false          :
          :  electronic temp.          300.0000000     K    :
          :  accuracy                    1.0000000          :
          :  -> integral cutoff          0.2500000E+02      :
          :  -> integral neglect         0.1000000E-07      :
          :  -> SCF convergence          0.1000000E-05 Eh   :
          :  -> wf. convergence          0.1000000E-03 e    :
          :  Broyden damping             0.4000000          :
          ...................................................

 iter      E             dE          RMSdq      gap      omega  full diag
   1    -56.3064833 -0.563065E+02  0.460E+00    2.90       0.0  T
   2    -56.3734141 -0.669307E-01  0.267E+00    2.84       1.0  T
   3    -56.3697391  0.367504E-02  0.141E+00    3.00       1.0  T
   4    -56.3871983 -0.174593E-01  0.268E-01    2.86       1.0  T
   5    -56.3882096 -0.101132E-02  0.125E-01    2.84       1.0  T
   6    -56.3884072 -0.197551E-03  0.737E-02    2.86       1.0  T
   7    -56.3884497 -0.425580E-04  0.450E-02    2.85       1.0  T
   8    -56.3884636 -0.138756E-04  0.305E-02    2.86       1.0  T
   9    -56.3884707 -0.704077E-05  0.213E-02    2.85       1.0  T
  10    -56.3884775 -0.686635E-05  0.768E-03    2.85       2.4  T
  11    -56.3884780 -0.468891E-06  0.393E-03    2.85       4.6  T
  12    -56.3884781 -0.153101E-06  0.195E-03    2.85       9.3  T
  13    -56.3884782 -0.343699E-07  0.127E-03    2.85      14.4  T
  14    -56.3884782 -0.914076E-08  0.838E-04    2.85      21.8  T
  15    -56.3884782 -0.767930E-08  0.516E-04    2.85      35.4  T

   *** convergence criteria satisfied after 15 iterations ***

         #    Occupation            Energy/Eh            Energy/eV
      -------------------------------------------------------------
         1        2.0000           -1.0634675             -28.9384
       ...           ...                  ...                  ...
        43        2.0000           -0.4280504             -11.6478
        44        2.0000           -0.4264851             -11.6053
        45        2.0000           -0.4242706             -11.5450
        46        2.0000           -0.4106490             -11.1743
        47        2.0000           -0.4066150             -11.0646
        48        2.0000           -0.3991547             -10.8616
        49        2.0000           -0.3661297              -9.9629 (HOMO)
        50                         -0.2614104              -7.1133 (LUMO)
        51                         -0.2568931              -6.9904
        52                         -0.2543554              -6.9214
        53                         -0.2268816              -6.1738
        54                         -0.2182955              -5.9401
       ...                                ...                  ...
        97                          0.6158772              16.7589
      -------------------------------------------------------------
                  HL-Gap            0.1047192 Eh            2.8496 eV
             Fermi-level           -0.3137700 Eh           -8.5381 eV

 SCC (total)                   0 d,  0 h,  0 min,  0.033 sec
 SCC setup                      ...        0 min,  0.001 sec (  2.185%)
 Dispersion                     ...        0 min,  0.000 sec (  1.019%)
 classical contributions        ...        0 min,  0.000 sec (  0.178%)
 integral evaluation            ...        0 min,  0.002 sec (  6.164%)
 iterations                     ...        0 min,  0.027 sec ( 80.236%)
 molecular gradient             ...        0 min,  0.003 sec (  9.690%)
 printout                       ...        0 min,  0.000 sec (  0.481%)

         :::::::::::::::::::::::::::::::::::::::::::::::::::::
         ::                     SUMMARY                     ::
         :::::::::::::::::::::::::::::::::::::::::::::::::::::
         :: total energy             -55.739593437380 Eh    ::
         :: gradient norm              0.142788435968 Eh/a0 ::
         :: HOMO-LUMO gap              2.849555239807 eV    ::
         ::.................................................::
         :: SCC energy               -56.388478199159 Eh    ::
         :: -> isotropic ES            0.065046084352 Eh    ::
         :: -> anisotropic ES         -0.001020259514 Eh    ::
         :: -> anisotropic XC          0.019212041722 Eh    ::
         :: -> dispersion             -0.036372134423 Eh    ::
         :: repulsion energy           0.648457511131 Eh    ::
         :: add. restraining           0.000000000000 Eh    ::
         :: total charge              -0.000000000000 e     ::
         :::::::::::::::::::::::::::::::::::::::::::::::::::::

      ----------------------------------------------------------- 
     |                   =====================                   |
     |                        A N C O P T                        |
     |                   =====================                   |
     |               Approximate Normal Coordinate               |
     |                Rational Function Optimizer                |
      ----------------------------------------------------------- 

          ...................................................
          :                      SETUP                      :
          :.................................................:
          :   optimization level            normal          :
          :   max. optcycles                   200          :
          :   ANC micro-cycles                  20          :
          :   degrees of freedom                84          :
          :.................................................:
          :   RF solver                   davidson          :
          :   write xtbopt.log                true          :
          :   linear?                        false          :
          :   energy convergence         0.5000000E-05 Eh   :
          :   grad. convergence          0.1000000E-02 Eh/α :
          :   maxmium RF displ.          1.0000000          :
          :   Hlow (freq-cutoff)         0.1000000E-01      :
          :   Hmax (freq-cutoff)         5.0000000          :
          :   S6 in model hess.         20.0000000          :
          ...................................................

generating ANC from model Hessian ...
Using Lindh-Hessian (1995)
 Shifting diagonal of input Hessian by    9.4126591419250449E-003
 Lowest  eigenvalues of input Hessian
    0.000000    0.000000    0.000000    0.000000    0.000000    0.000000
    0.010000    0.010241    0.010487    0.011243    0.011658    0.013798
    0.015393    0.016519    0.019105    0.019455    0.021785    0.025636
 Highest eigenvalues
    1.809901    1.914830    1.926476    1.939138    1.971735    2.022287


........................................................................
.............................. CYCLE    1 ..............................
........................................................................

 iter      E             dE          RMSdq      gap      omega  full diag
   1    -56.3884782 -0.563885E+02  0.256E-04    2.85       0.0  T
   2    -56.3884782 -0.324427E-09  0.201E-04    2.85      90.8  T
   3    -56.3884782 -0.147942E-09  0.160E-04    2.85     114.2  T
     SCC iter.                  ...        0 min,  0.004 sec
     gradient                   ...        0 min,  0.003 sec
 * total energy  :   -55.7395934 Eh     change       -0.3208775E-08 Eh
   gradient norm :     0.1427858 Eh/α   predicted     0.0000000E+00 (-100.00%)
   displ. norm   :     0.3558494 α      lambda       -0.2788550E-01
   maximum displ.:     0.1477003 α      in ANC's #34, #41, #19, ...

........................................................................
.............................. CYCLE    2 ..............................
........................................................................

 iter      E             dE          RMSdq      gap      omega  full diag
   1    -56.4605029 -0.564605E+02  0.263E-01    3.02       0.0  T
   2    -56.4608945 -0.391693E-03  0.170E-01    3.07       1.0  T
   3    -56.4609224 -0.278979E-04  0.934E-02    3.05       1.0  T
   4    -56.4609967 -0.742326E-04  0.355E-02    3.06       1.0  T
   5    -56.4610173 -0.206487E-04  0.197E-02    3.06       1.0  T
   6    -56.4610199 -0.253789E-05  0.156E-02    3.06       1.2  T
   7    -56.4610222 -0.237917E-05  0.941E-03    3.05       1.9  T
   8    -56.4610233 -0.102802E-05  0.450E-03    3.05       4.1  T
   9    -56.4610236 -0.310496E-06  0.133E-03    3.05      13.8  T
  10    -56.4610236 -0.147133E-07  0.713E-04    3.05      25.6  T
  11    -56.4610236 -0.178626E-08  0.319E-04    3.05      57.3  T
     SCC iter.                  ...        0 min,  0.014 sec
     gradient                   ...        0 min,  0.004 sec
 * total energy  :   -55.7594266 Eh     change       -0.1983321E-01 Eh
   gradient norm :     0.0533728 Eh/α   predicted    -0.1572383E-01 ( -20.72%)
   displ. norm   :     0.3383858 α      lambda       -0.8910901E-02
   maximum displ.:     0.1410989 α      in ANC's #19, #34, #10, ...

........................................................................
.............................. CYCLE    3 ..............................
........................................................................

 iter      E             dE          RMSdq      gap      omega  full diag
   1    -56.4976673 -0.564977E+02  0.190E-01    3.06       0.0  T
   2    -56.4978857 -0.218335E-03  0.127E-01    3.12       1.0  T
   3    -56.4979103 -0.245817E-04  0.694E-02    3.10       1.0  T
   4    -56.4979549 -0.446297E-04  0.288E-02    3.11       1.0  T
   5    -56.4979678 -0.129190E-04  0.151E-02    3.11       1.2  T
   6    -56.4979691 -0.124464E-05  0.117E-02    3.11       1.6  T
   7    -56.4979704 -0.135446E-05  0.711E-03    3.11       2.6  T
   8    -56.4979710 -0.617039E-06  0.320E-03    3.11       5.7  T
   9    -56.4979712 -0.146126E-06  0.950E-04    3.11      19.2  T
  10    -56.4979712 -0.815656E-08  0.487E-04    3.11      37.5  T
     SCC iter.                  ...        0 min,  0.013 sec
     gradient                   ...        0 min,  0.004 sec
 * total energy  :   -55.7644044 Eh     change       -0.4977729E-02 Eh
   gradient norm :     0.0165750 Eh/α   predicted    -0.4966347E-02 (  -0.23%)
   displ. norm   :     0.2526638 α      lambda       -0.1330431E-02
   maximum displ.:     0.1205259 α      in ANC's #6, #13, #1, ...

........................................................................
.............................. CYCLE    4 ..............................
........................................................................

 iter      E             dE          RMSdq      gap      omega  full diag
   1    -56.4992042 -0.564992E+02  0.892E-02    3.11       0.0  T
   2    -56.4992282 -0.239577E-04  0.543E-02    3.14       1.0  T
   3    -56.4992218  0.637551E-05  0.283E-02    3.14       1.0  T
   4    -56.4992354 -0.136160E-04  0.800E-03    3.14       2.3  T
   5    -56.4992366 -0.113179E-05  0.405E-03    3.14       4.5  T
   6    -56.4992366 -0.683709E-07  0.309E-03    3.14       5.9  T
   7    -56.4992367 -0.798186E-07  0.182E-03    3.14      10.0  T
   8    -56.4992368 -0.360142E-07  0.105E-03    3.14      17.4  T
   9    -56.4992368 -0.102375E-07  0.458E-04    3.14      39.8  T
  10    -56.4992368 -0.232384E-08  0.152E-04    3.14     119.9  T
     SCC iter.                  ...        0 min,  0.012 sec
     gradient                   ...        0 min,  0.004 sec
 * total energy  :   -55.7654339 Eh     change       -0.1029554E-02 Eh
   gradient norm :     0.0098259 Eh/α   predicted    -0.7077000E-03 ( -31.26%)
   displ. norm   :     0.4361264 α      lambda       -0.1421139E-02
   maximum displ.:     0.2252538 α      in ANC's #6, #1, #13, ...

........................................................................
.............................. CYCLE    5 ..............................
........................................................................

 iter      E             dE          RMSdq      gap      omega  full diag
   1    -56.4965568 -0.564966E+02  0.160E-01    3.16       0.0  T
   2    -56.4965958 -0.389175E-04  0.947E-02    3.19       1.0  T
   3    -56.4965761  0.196546E-04  0.459E-02    3.18       1.0  T
   4    -56.4966083 -0.321911E-04  0.100E-02    3.19       1.8  T
   5    -56.4966093 -0.101337E-05  0.645E-03    3.19       2.8  T
   6    -56.4966095 -0.143733E-06  0.443E-03    3.19       4.1  T
   7    -56.4966097 -0.208394E-06  0.260E-03    3.19       7.0  T
   8    -56.4966097 -0.651271E-07  0.146E-03    3.19      12.5  T
   9    -56.4966097 -0.211246E-07  0.577E-04    3.19      31.6  T
  10    -56.4966097 -0.400014E-08  0.192E-04    3.19      95.3  T
     SCC iter.                  ...        0 min,  0.018 sec
     gradient                   ...        0 min,  0.004 sec
 * total energy  :   -55.7663620 Eh     change       -0.9281204E-03 Eh
   gradient norm :     0.0167292 Eh/α   predicted    -0.8457487E-03 (  -8.88%)
   displ. norm   :     0.3273980 α      lambda       -0.7067308E-03
   maximum displ.:     0.1822842 α      in ANC's #1, #6, #3, ...

........................................................................
.............................. CYCLE    6 ..............................
........................................................................

 iter      E             dE          RMSdq      gap      omega  full diag
   1    -56.4960412 -0.564960E+02  0.115E-01    3.20       0.0  T
   2    -56.4960546 -0.134042E-04  0.672E-02    3.21       1.0  T
   3    -56.4960460  0.865013E-05  0.282E-02    3.21       1.0  T
   4    -56.4960584 -0.124685E-04  0.554E-03    3.21       3.3  T
   5    -56.4960587 -0.236610E-06  0.368E-03    3.21       5.0  T
   6    -56.4960587 -0.581444E-07  0.256E-03    3.21       7.1  T
   7    -56.4960588 -0.601687E-07  0.138E-03    3.21      13.2  T
   8    -56.4960588 -0.171186E-07  0.794E-04    3.21      23.0  T
   9    -56.4960588 -0.591707E-08  0.327E-04    3.21      55.8  T
     SCC iter.                  ...        0 min,  0.010 sec
     gradient                   ...        0 min,  0.004 sec
 * total energy  :   -55.7668953 Eh     change       -0.5332633E-03 Eh
   gradient norm :     0.0143619 Eh/α   predicted    -0.3912450E-03 ( -26.63%)
   displ. norm   :     0.3880593 α      lambda       -0.8518240E-03
   maximum displ.:     0.2304871 α      in ANC's #1, #6, #3, ...

........................................................................
.............................. CYCLE    7 ..............................
........................................................................

 iter      E             dE          RMSdq      gap      omega  full diag
   1    -56.4967995 -0.564968E+02  0.146E-01    3.24       0.0  T
   2    -56.4968092 -0.971182E-05  0.859E-02    3.23       1.0  T
   3    -56.4967919  0.172957E-04  0.317E-02    3.24       1.0  T
   4    -56.4968141 -0.222162E-04  0.604E-03    3.24       3.0  T
   5    -56.4968143 -0.178836E-06  0.456E-03    3.24       4.0  T
   6    -56.4968144 -0.916107E-07  0.298E-03    3.23       6.1  T
   7    -56.4968145 -0.111244E-06  0.159E-03    3.23      11.5  T
   8    -56.4968145 -0.177153E-07  0.967E-04    3.23      18.9  T
   9    -56.4968146 -0.116307E-07  0.313E-04    3.23      58.3  T
     SCC iter.                  ...        0 min,  0.015 sec
     gradient                   ...        0 min,  0.004 sec
 * total energy  :   -55.7675199 Eh     change       -0.6245930E-03 Eh
   gradient norm :     0.0104391 Eh/α   predicted    -0.4900557E-03 ( -21.54%)
   displ. norm   :     0.3998279 α      lambda       -0.7123302E-03
   maximum displ.:     0.2415120 α      in ANC's #1, #3, #2, ...

........................................................................
.............................. CYCLE    8 ..............................
........................................................................

 iter      E             dE          RMSdq      gap      omega  full diag
   1    -56.4985731 -0.564986E+02  0.149E-01    3.28       0.0  T
   2    -56.4985864 -0.133486E-04  0.873E-02    3.27       1.0  T
   3    -56.4985726  0.137908E-04  0.301E-02    3.28       1.0  T
   4    -56.4985910 -0.183911E-04  0.699E-03    3.27       2.6  T
   5    -56.4985913 -0.308099E-06  0.512E-03    3.27       3.6  T
   6    -56.4985915 -0.119210E-06  0.350E-03    3.27       5.2  T
   7    -56.4985916 -0.125990E-06  0.177E-03    3.27      10.3  T
   8    -56.4985916 -0.277332E-07  0.106E-03    3.27      17.2  T
   9    -56.4985916 -0.127950E-07  0.342E-04    3.27      53.4  T
  10    -56.4985916 -0.119665E-08  0.172E-04    3.27     106.4  T
     SCC iter.                  ...        0 min,  0.013 sec
     gradient                   ...        0 min,  0.003 sec
 * total energy  :   -55.7680006 Eh     change       -0.4807345E-03 Eh
   gradient norm :     0.0085540 Eh/α   predicted    -0.4131103E-03 ( -14.07%)
   displ. norm   :     0.3443900 α      lambda       -0.4785294E-03
   maximum displ.:     0.2091549 α      in ANC's #1, #3, #2, ...

........................................................................
.............................. CYCLE    9 ..............................
........................................................................

 iter      E             dE          RMSdq      gap      omega  full diag
   1    -56.4994776 -0.564995E+02  0.136E-01    3.27       0.0  T
   2    -56.4994824 -0.483013E-05  0.802E-02    3.28       1.0  T
   3    -56.4994770  0.536315E-05  0.184E-02    3.28       1.0  T
   4    -56.4994842 -0.719652E-05  0.465E-03    3.28       3.9  T
   5    -56.4994843 -0.122036E-06  0.321E-03    3.28       5.7  T
   6    -56.4994844 -0.469752E-07  0.185E-03    3.28       9.9  T
   7    -56.4994844 -0.344984E-07  0.116E-03    3.28      15.8  T
   8    -56.4994844 -0.102960E-07  0.683E-04    3.28      26.7  T
   9    -56.4994844 -0.516288E-08  0.244E-04    3.28      75.0  T
     SCC iter.                  ...        0 min,  0.010 sec
     gradient                   ...        0 min,  0.005 sec
 * total energy  :   -55.7683226 Eh     change       -0.3219570E-03 Eh
   gradient norm :     0.0110694 Eh/α   predicted    -0.2676462E-03 ( -16.87%)
   displ. norm   :     0.2992367 α      lambda       -0.3584236E-03
   maximum displ.:     0.1905108 α      in ANC's #1, #3, #2, ...

........................................................................
.............................. CYCLE   10 ..............................
........................................................................

 iter      E             dE          RMSdq      gap      omega  full diag
   1    -56.5005656 -0.565006E+02  0.111E-01    3.29       0.0  T
   2    -56.5005744 -0.878575E-05  0.652E-02    3.29       1.0  T
   3    -56.5005644  0.100078E-04  0.247E-02    3.29       1.0  T
   4    -56.5005774 -0.130448E-04  0.507E-03    3.29       3.6  T
   5    -56.5005777 -0.313679E-06  0.328E-03    3.29       5.6  T
   6    -56.5005778 -0.592921E-07  0.243E-03    3.29       7.5  T
   7    -56.5005778 -0.590684E-07  0.138E-03    3.29      13.3  T
   8    -56.5005778 -0.215392E-07  0.902E-04    3.29      20.2  T
   9    -56.5005779 -0.112011E-07  0.425E-04    3.29      43.0  T
     SCC iter.                  ...        0 min,  0.011 sec
     gradient                   ...        0 min,  0.004 sec
 * total energy  :   -55.7685848 Eh     change       -0.2622238E-03 Eh
   gradient norm :     0.0077381 Eh/α   predicted    -0.1952591E-03 ( -25.54%)
   displ. norm   :     0.3789382 α      lambda       -0.3580879E-03
   maximum displ.:     0.2384622 α      in ANC's #1, #3, #2, ...

........................................................................
.............................. CYCLE   11 ..............................
........................................................................

 iter      E             dE          RMSdq      gap      omega  full diag
   1    -56.4995112 -0.564995E+02  0.138E-01    3.26       0.0  T
   2    -56.4995199 -0.872426E-05  0.812E-02    3.27       1.0  T
   3    -56.4995037  0.161421E-04  0.291E-02    3.26       1.0  T
   4    -56.4995240 -0.202977E-04  0.487E-03    3.26       3.7  T
   5    -56.4995243 -0.261409E-06  0.314E-03    3.26       5.8  T
   6    -56.4995244 -0.476623E-07  0.206E-03    3.26       8.9  T
   7    -56.4995244 -0.413475E-07  0.139E-03    3.26      13.2  T
   8    -56.4995244 -0.191576E-07  0.979E-04    3.26      18.7  T
   9    -56.4995244 -0.136716E-07  0.524E-04    3.26      34.9  T
     SCC iter.                  ...        0 min,  0.009 sec
     gradient                   ...        0 min,  0.003 sec
 * total energy  :   -55.7688304 Eh     change       -0.2456200E-03 Eh
   gradient norm :     0.0099267 Eh/α   predicted    -0.2047552E-03 ( -16.64%)
   displ. norm   :     0.2922579 α      lambda       -0.3761660E-03
   maximum displ.:     0.1822477 α      in ANC's #1, #3, #6, ...

........................................................................
.............................. CYCLE   12 ..............................
........................................................................

 iter      E             dE          RMSdq      gap      omega  full diag
   1    -56.5024503 -0.565025E+02  0.108E-01    3.26       0.0  T
   2    -56.5024698 -0.194690E-04  0.642E-02    3.27       1.0  T
   3    -56.5024579  0.119043E-04  0.300E-02    3.27       1.0  T
   4    -56.5024757 -0.178424E-04  0.607E-03    3.27       3.0  T
   5    -56.5024765 -0.779271E-06  0.325E-03    3.27       5.6  T
   6    -56.5024766 -0.827139E-07  0.242E-03    3.27       7.6  T
   7    -56.5024766 -0.487519E-07  0.160E-03    3.27      11.4  T
   8    -56.5024767 -0.285385E-07  0.111E-03    3.27      16.5  T
   9    -56.5024767 -0.185895E-07  0.511E-04    3.27      35.7  T
  10    -56.5024767 -0.326573E-08  0.261E-04    3.27      69.9  T
     SCC iter.                  ...        0 min,  0.013 sec
     gradient                   ...        0 min,  0.004 sec
 * total energy  :   -55.7690089 Eh     change       -0.1784676E-03 Eh
   gradient norm :     0.0126913 Eh/α   predicted    -0.2041493E-03 (  14.39%)
   displ. norm   :     0.3552970 α      lambda       -0.4082888E-03
   maximum displ.:     0.2281221 α      in ANC's #1, #3, #2, ...

........................................................................
.............................. CYCLE   13 ..............................
........................................................................

 iter      E             dE          RMSdq      gap      omega  full diag
   1    -56.4977599 -0.564978E+02  0.136E-01    3.21       0.0  T
   2    -56.4977718 -0.118868E-04  0.802E-02    3.22       1.0  T
   3    -56.4977550  0.167378E-04  0.306E-02    3.21       1.0  T
   4    -56.4977764 -0.214001E-04  0.508E-03    3.22       3.6  T
   5    -56.4977768 -0.350058E-06  0.295E-03    3.22       6.2  T
   6    -56.4977768 -0.364550E-07  0.197E-03    3.22       9.3  T
   7    -56.4977769 -0.352795E-07  0.129E-03    3.22      14.1  T
   8    -56.4977769 -0.155944E-07  0.969E-04    3.22      18.8  T
   9    -56.4977769 -0.134283E-07  0.498E-04    3.22      36.7  T
     SCC iter.                  ...        0 min,  0.010 sec
     gradient                   ...        0 min,  0.004 sec
 * total energy  :   -55.7691863 Eh     change       -0.1774193E-03 Eh
   gradient norm :     0.0121892 Eh/α   predicted    -0.2299231E-03 (  29.59%)
   displ. norm   :     0.1093454 α      lambda       -0.2535684E-03
   maximum displ.:     0.0664837 α      in ANC's #1, #3, #13, ...

........................................................................
.............................. CYCLE   14 ..............................
........................................................................

 iter      E             dE          RMSdq      gap      omega  full diag
   1    -56.4992700 -0.564993E+02  0.441E-02    3.22       0.0  T
   2    -56.4992786 -0.855347E-05  0.250E-02    3.21       1.0  T
   3    -56.4992783  0.277077E-06  0.122E-02    3.21       1.5  T
   4    -56.4992790 -0.697238E-06  0.481E-03    3.21       3.8  T
   5    -56.4992794 -0.380928E-06  0.202E-03    3.21       9.0  T
   6    -56.4992794 -0.186768E-07  0.151E-03    3.21      12.1  T
   7    -56.4992794 -0.235258E-07  0.819E-04    3.21      22.3  T
   8    -56.4992794 -0.634574E-08  0.484E-04    3.21      37.7  T
     SCC iter.                  ...        0 min,  0.010 sec
     gradient                   ...        0 min,  0.004 sec
 * total energy  :   -55.7693775 Eh     change       -0.1912211E-03 Eh
   gradient norm :     0.0063066 Eh/α   predicted    -0.1283069E-03 ( -32.90%)
   displ. norm   :     0.1874362 α      lambda       -0.3142684E-03
   maximum displ.:     0.0969856 α      in ANC's #1, #13, #3, ...

........................................................................
.............................. CYCLE   15 ..............................
........................................................................

 iter      E             dE          RMSdq      gap      omega  full diag
   1    -56.5017671 -0.565018E+02  0.759E-02    3.21       0.0  T
   2    -56.5017749 -0.783874E-05  0.441E-02    3.21       1.0  T
   3    -56.5017701  0.487029E-05  0.243E-02    3.21       1.0  T
   4    -56.5017791 -0.900908E-05  0.553E-03    3.21       3.3  T
   5    -56.5017792 -0.170109E-06  0.414E-03    3.21       4.4  T
   6    -56.5017793 -0.103282E-06  0.267E-03    3.21       6.8  T
   7    -56.5017794 -0.675781E-07  0.162E-03    3.21      11.3  T
   8    -56.5017794 -0.228061E-07  0.889E-04    3.21      20.5  T
   9    -56.5017794 -0.117996E-07  0.270E-04    3.21      67.6  T
     SCC iter.                  ...        0 min,  0.010 sec
     gradient                   ...        0 min,  0.003 sec
 * total energy  :   -55.7695401 Eh     change       -0.1625750E-03 Eh
   gradient norm :     0.0037461 Eh/α   predicted    -0.1626593E-03 (   0.05%)
   displ. norm   :     0.2269323 α      lambda       -0.7431158E-04
   maximum displ.:     0.1586219 α      in ANC's #1, #3, #2, ...

........................................................................
.............................. CYCLE   16 ..............................
........................................................................

 iter      E             dE          RMSdq      gap      omega  full diag
   1    -56.4992735 -0.564993E+02  0.839E-02    3.18       0.0  T
   2    -56.4992779 -0.440667E-05  0.496E-02    3.19       1.0  T
   3    -56.4992726  0.533127E-05  0.184E-02    3.18       1.0  T
   4    -56.4992795 -0.691088E-05  0.321E-03    3.19       5.7  T
   5    -56.4992796 -0.122997E-06  0.191E-03    3.19       9.6  T
   6    -56.4992796 -0.177842E-07  0.136E-03    3.19      13.4  T
   7    -56.4992796 -0.160796E-07  0.862E-04    3.19      21.2  T
   8    -56.4992797 -0.671749E-08  0.595E-04    3.19      30.7  T
     SCC iter.                  ...        0 min,  0.009 sec
     gradient                   ...        0 min,  0.004 sec
 * total energy  :   -55.7695645 Eh     change       -0.2439660E-04 Eh
   gradient norm :     0.0044267 Eh/α   predicted    -0.3907272E-04 (  60.16%)
   displ. norm   :     0.0368258 α      lambda       -0.4341028E-04
   maximum displ.:     0.0232661 α      in ANC's #5, #3, #11, ...

........................................................................
.............................. CYCLE   17 ..............................
........................................................................

 iter      E             dE          RMSdq      gap      omega  full diag
   1    -56.5010329 -0.565010E+02  0.180E-02    3.20       0.0  T
   2    -56.5010338 -0.974694E-06  0.107E-02    3.20       1.7  T
   3    -56.5010338  0.322203E-07  0.489E-03    3.20       3.7  T
   4    -56.5010340 -0.191891E-06  0.930E-04    3.20      19.6  T
   5    -56.5010340 -0.194851E-07  0.475E-04    3.20      38.5  T
     SCC iter.                  ...        0 min,  0.006 sec
     gradient                   ...        0 min,  0.004 sec
 * total energy  :   -55.7695927 Eh     change       -0.2820782E-04 Eh
   gradient norm :     0.0014984 Eh/α   predicted    -0.2173828E-04 ( -22.94%)
   displ. norm   :     0.1261635 α      lambda       -0.2747210E-04
   maximum displ.:     0.0837251 α      in ANC's #1, #5, #2, ...

........................................................................
.............................. CYCLE   18 ..............................
........................................................................

 iter      E             dE          RMSdq      gap      omega  full diag
   1    -56.5024448 -0.565024E+02  0.479E-02    3.20       0.0  T
   2    -56.5024462 -0.134875E-05  0.280E-02    3.20       1.0  T
   3    -56.5024437  0.252692E-05  0.961E-03    3.20       1.9  T
   4    -56.5024467 -0.301214E-05  0.177E-03    3.20      10.3  T
   5    -56.5024467 -0.658396E-07  0.102E-03    3.20      17.9  T
   6    -56.5024467 -0.461268E-08  0.761E-04    3.20      24.0  T
   7    -56.5024467 -0.553690E-08  0.447E-04    3.20      40.8  T
     SCC iter.                  ...        0 min,  0.008 sec
     gradient                   ...        0 min,  0.004 sec
 * total energy  :   -55.7696141 Eh     change       -0.2135240E-04 Eh
   gradient norm :     0.0019120 Eh/α   predicted    -0.1383439E-04 ( -35.21%)
   displ. norm   :     0.1225435 α      lambda       -0.1528205E-04
   maximum displ.:     0.0885919 α      in ANC's #1, #3, #2, ...

........................................................................
.............................. CYCLE   19 ..............................
........................................................................

 iter      E             dE          RMSdq      gap      omega  full diag
   1    -56.5018342 -0.565018E+02  0.469E-02    3.20       0.0  T
   2    -56.5018347 -0.424674E-06  0.276E-02    3.20       1.0  T
   3    -56.5018336  0.107751E-05  0.781E-03    3.20       2.3  T
   4    -56.5018349 -0.132871E-05  0.132E-03    3.20      13.9  T
   5    -56.5018349 -0.760765E-08  0.993E-04    3.20      18.4  T
   6    -56.5018349 -0.603295E-08  0.573E-04    3.20      31.9  T
     SCC iter.                  ...        0 min,  0.012 sec
     gradient                   ...        0 min,  0.005 sec
 * total energy  :   -55.7696264 Eh     change       -0.1233237E-04 Eh
   gradient norm :     0.0019547 Eh/α   predicted    -0.7695762E-05 ( -37.60%)
   displ. norm   :     0.0727465 α      lambda       -0.1085165E-04
   maximum displ.:     0.0477874 α      in ANC's #1, #5, #6, ...

........................................................................
.............................. CYCLE   20 ..............................
........................................................................

 iter      E             dE          RMSdq      gap      omega  full diag
   1    -56.5014881 -0.565015E+02  0.292E-02    3.20       0.0  T
   2    -56.5014887 -0.616338E-06  0.172E-02    3.20       1.1  T
   3    -56.5014884  0.358810E-06  0.473E-03    3.20       3.9  T
   4    -56.5014888 -0.468999E-06  0.121E-03    3.20      15.1  T
   5    -56.5014888 -0.258573E-07  0.729E-04    3.20      25.1  T
   6    -56.5014888 -0.311485E-08  0.518E-04    3.20      35.2  T
     SCC iter.                  ...        0 min,  0.009 sec
     gradient                   ...        0 min,  0.004 sec
 * total energy  :   -55.7696336 Eh     change       -0.7199023E-05 Eh
   gradient norm :     0.0014437 Eh/α   predicted    -0.5444070E-05 ( -24.38%)
   displ. norm   :     0.0382164 α      lambda       -0.6376075E-05
   maximum displ.:     0.0293530 α      in ANC's #5, #3, #2, ...
 * RMSD in coord.:     0.7265308 α      energy gain  -0.3004017E-01 Eh

generating ANC from model Hessian ...
Using Lindh-Hessian (1995)
 Shifting diagonal of input Hessian by    9.2346201781598070E-003
 Lowest  eigenvalues of input Hessian
    0.000000    0.000000    0.000000    0.000000    0.000000    0.000000
    0.010000    0.010519    0.010620    0.011297    0.012567    0.014582
    0.015473    0.018225    0.020542    0.020723    0.023978    0.027722
 Highest eigenvalues
    1.911305    2.008897    2.025254    2.073278    2.178192    2.370766


........................................................................
.............................. CYCLE   21 ..............................
........................................................................

 iter      E             dE          RMSdq      gap      omega  full diag
   1    -56.5018776 -0.565019E+02  0.148E-02    3.20       0.0  T
   2    -56.5018778 -0.180273E-06  0.889E-03    3.20       2.1  T
   3    -56.5018775  0.283558E-06  0.434E-03    3.20       4.2  T
   4    -56.5018779 -0.397149E-06  0.788E-04    3.20      23.2  T
   5    -56.5018779 -0.452336E-08  0.596E-04    3.20      30.6  T
     SCC iter.                  ...        0 min,  0.006 sec
     gradient                   ...        0 min,  0.003 sec
 * total energy  :   -55.7696368 Eh     change       -0.3159370E-05 Eh
   gradient norm :     0.0016205 Eh/α   predicted     0.0000000E+00 (-100.00%)
   displ. norm   :     0.0108997 α      lambda       -0.3465735E-05
   maximum displ.:     0.0041568 α      in ANC's #3, #13, #5, ...

........................................................................
.............................. CYCLE   22 ..............................
........................................................................

 iter      E             dE          RMSdq      gap      omega  full diag
   1    -56.5017004 -0.565017E+02  0.684E-03    3.20       0.0  T
   2    -56.5017005 -0.804736E-07  0.420E-03    3.20       4.3  T
   3    -56.5017005  0.496352E-07  0.215E-03    3.20       8.5  T
   4    -56.5017006 -0.850905E-07  0.416E-04    3.20      43.9  T
   5    -56.5017006 -0.274439E-08  0.240E-04    3.20      76.2  T
     SCC iter.                  ...        0 min,  0.005 sec
     gradient                   ...        0 min,  0.003 sec
 * total energy  :   -55.7696400 Eh     change       -0.3194548E-05 Eh
   gradient norm :     0.0003972 Eh/α   predicted    -0.1952404E-05 ( -38.88%)
   displ. norm   :     0.0117559 α      lambda        0.1629901E-05
   maximum displ.:     0.0052932 α      in ANC's #3, #4, #5, ...

   *** GEOMETRY OPTIMIZATION CONVERGED AFTER 22 ITERATIONS ***

------------------------------------------------------------------------
 total energy gain   :        -0.0300465 Eh      -18.8545 kcal/mol
 total RMSD          :         0.7262476 a0        0.3843 Å
 total power (kW/mol):        -3.5857795 (step) -212.3179 (real)
------------------------------------------------------------------------

 ANCopt (total)                0 d,  0 h,  0 min,  0.372 sec
 optimizer setup                ...        0 min,  0.000 sec (  0.026%)
 model hessian                  ...        0 min,  0.009 sec (  2.538%)
 ANC generation                 ...        0 min,  0.001 sec (  0.314%)
 coordinate transformation      ...        0 min,  0.000 sec (  0.049%)
 single point calculation       ...        0 min,  0.354 sec ( 95.179%)
 optimization log               ...        0 min,  0.003 sec (  0.812%)
 hessian update                 ...        0 min,  0.000 sec (  0.081%)
 rational function              ...        0 min,  0.003 sec (  0.746%)

================
 final structure:
================
30
 xtb: 6.6.0 (conda-forge)
C           -2.59611733584063       -2.50899988776589       -0.17346290337333
C           -1.28361164297090       -2.77146910199461       -0.52799770808684
C           -0.34057309913777       -1.76375288677256       -0.48960199454423
C           -0.69210360096965       -0.47935959685920       -0.07838647267550
C           -2.01817254146162       -0.21370323147400        0.28420800226059
C           -2.95607546936314       -1.23261916194326        0.22039327205535
C           -2.43489132347969        1.17101874551091        0.72299464844075
C           -2.80789214938909        1.95102334342930       -0.51450338334688
O           -3.91040894663013        2.05665743366737       -0.97249521574232
O           -1.73041318147856        2.50501711423168       -1.10095758887012
N            0.24368753936344        0.55514117884526       -0.04884162951709
C            1.60599311114927        0.40561470315977        0.03795018272346
C            2.45882925351132        1.22545358444596       -0.71904658683980
C            3.83396378184196        1.14875587833669       -0.62908898304725
C            4.41068949735325        0.22952894939689        0.23094482566895
C            3.60562709546674       -0.57435759823003        1.01818979796662
C            2.22823563893341       -0.47380860536326        0.93807088529049
Cl           1.26732029779517       -1.41829169831412        2.02689964978184
Cl           1.74766919539054        2.37885431800140       -1.80453168635929
H           -3.33697224900399       -3.29277430538766       -0.20698196533311
H           -0.99375704518583       -3.76125010641568       -0.84725339008973
H            0.67729602983583       -1.95927718964441       -0.79367210396791
H           -3.97979834390417       -1.01987633075785        0.49032691889217
H           -3.31095924100781        1.10709693597917        1.36715553285895
H           -1.61660211336246        1.66853099003229        1.24333110398720
H           -1.98213240480929        2.96681286835188       -1.91625807565845
H           -0.05877603165101        1.42192753560460       -0.47922813788620
H            4.44591308991369        1.79781280921312       -1.23503543422402
H            5.48354447692586        0.15215249016999        0.29784956422687
H            4.04058771216568       -1.27155917745431        1.71632887540976

 Bond Distances (Angstroems)
 ---------------------------
C1-C2=1.3847         C1-C6=1.3834         C1-H20=1.0790        C2-C1=1.3847         C2-C3=1.3807         C2-H21=1.0796        
C3-C2=1.3807         C3-C4=1.3937         C3-H22=1.0802        C4-C3=1.3937         C4-C5=1.4002         C4-N11=1.3953        
C5-C4=1.4002         C5-C6=1.3863         C5-C7=1.5112         C6-C1=1.3834         C6-C5=1.3863         C6-H23=1.0799        
C7-C5=1.5112         C7-C8=1.5096         C7-H24=1.0893        C7-H25=1.0899        C8-C7=1.5096         C8-O9=1.1985         
C8-O10=1.3460        O9-C8=1.1985         O10-C8=1.3460        O10-H26=0.9702       N11-C4=1.3953        N11-C12=1.3732       
N11-H27=1.0139       C12-N11=1.3732       C12-C13=1.4045       C12-C17=1.4038       C13-C12=1.4045       C13-C14=1.3802       
C13-Cl19=1.7362      C14-C13=1.3802       C14-C15=1.3846       C14-H28=1.0784       C15-C14=1.3846       C15-C16=1.3835       
C15-H29=1.0777       C16-C15=1.3835       C16-C17=1.3834       C16-H30=1.0783       C17-C12=1.4038       C17-C16=1.3834       
C17-Cl18=1.7323      Cl18-C17=1.7323      Cl19-C13=1.7362      H20-C1=1.0790        H21-C2=1.0796        H22-C3=1.0802        
H23-C6=1.0799        H24-C7=1.0893        H25-C7=1.0899        H26-O10=0.9702       H27-N11=1.0139       H28-C14=1.0784       
H29-C15=1.0777       H30-C16=1.0783       
 C  H  Rav=1.0814 sigma=0.0045  Rmin=1.0777  Rmax=1.0899     9
 C  C  Rav=1.4064 sigma=0.0432  Rmin=1.3802  Rmax=1.5112    14
 N  H  Rav=1.0139 sigma=0.0000  Rmin=1.0139  Rmax=1.0139     1
 N  C  Rav=1.3842 sigma=0.0110  Rmin=1.3732  Rmax=1.3953     2
 O  H  Rav=0.9702 sigma=0.0000  Rmin=0.9702  Rmax=0.9702     1
 O  C  Rav=1.2723 sigma=0.0738  Rmin=1.1985  Rmax=1.3460     2
 Cl C  Rav=1.7343 sigma=0.0019  Rmin=1.7323  Rmax=1.7362     2

 selected bond angles (degree)
 --------------------
C6-C1-C2=119.63                H20-C1-C2=120.34               H20-C1-C6=120.02               C3-C2-C1=120.13                
H21-C2-C1=120.26               H21-C2-C3=119.60               C4-C3-C2=120.57                H22-C3-C2=120.24               
H22-C3-C4=119.18               C5-C4-C3=119.35                N11-C4-C3=121.36               N11-C4-C5=119.28               
C6-C5-C4=119.30                C7-C5-C4=120.68                C7-C5-C6=120.02                C5-C6-C1=121.01                
H23-C6-C1=119.97               H23-C6-C5=119.02               C8-C7-C5=107.67                H24-C7-C5=109.86               
H24-C7-C8=108.44               H25-C7-C5=110.48               H25-C7-C8=109.94               H25-C7-H24=110.38              
O9-C8-C7=125.88                O10-C8-C7=111.84               O10-C8-O9=122.25               H26-O10-C8=110.75              

 selected dihedral angles (degree)
 ---------------------------------
C3-C2-C1-C6=359.93            C3-C2-C1-H20=179.69           H21-C2-C1-C6=180.67           H21-C2-C1-H20=  0.43          
C4-C3-C2-C1=  0.85            C4-C3-C2-H21=180.12           H22-C3-C2-C1=181.81           H22-C3-C2-H21=  1.08          
C5-C4-C3-C2=359.35            C5-C4-C3-H22=178.39           N11-C4-C3-C2=180.79           N11-C4-C3-H22=359.84          
C6-C5-C4-C3=359.68            C6-C5-C4-N11=178.27           C7-C5-C4-C3=180.54            C7-C5-C4-N11=359.12           
C5-C6-C1-C2=359.08            C5-C6-C1-H20=179.32           H23-C6-C1-C2=179.50           H23-C6-C1-H20=359.74          
C1-C6-C5-C4=  1.10            C1-C6-C5-C7=180.26            H23-C6-C5-C4=180.69           H23-C6-C5-C7=359.84           
C8-C7-C5-C4= 87.54            C8-C7-C5-C6=268.40            H24-C7-C5-C4=205.45           H24-C7-C5-C6= 26.32           
H25-C7-C5-C4=327.47           H25-C7-C5-C6=148.33           O9-C8-C7-C5= 93.38            O9-C8-C7-H24=334.56           
O9-C8-C7-H25=213.79           O10-C8-C7-C5=275.39           O10-C8-C7-H24=156.57          O10-C8-C7-H25= 35.80          
H26-O10-C8-C7=177.34          H26-O10-C8-O9=359.26          
           -------------------------------------------------
          |                Final Singlepoint                |
           -------------------------------------------------

          ...................................................
          :                      SETUP                      :
          :.................................................:
          :  # basis functions                  99          :
          :  # atomic orbitals                  97          :
          :  # shells                           51          :
          :  # electrons                        98          :
          :  max. iterations                   250          :
          :  Hamiltonian                  GFN2-xTB          :
          :  restarted?                      false          :
          :  GBSA solvation                  false          :
          :  PC potential                    false          :
          :  electronic temp.          300.0000000     K    :
          :  accuracy                    1.0000000          :
          :  -> integral cutoff          0.2500000E+02      :
          :  -> integral neglect         0.1000000E-07      :
          :  -> SCF convergence          0.1000000E-05 Eh   :
          :  -> wf. convergence          0.1000000E-03 e    :
          :  Broyden damping             0.4000000          :
          ...................................................

 iter      E             dE          RMSdq      gap      omega  full diag
   1    -56.5017006 -0.565017E+02  0.168E-04    3.20       0.0  T
   2    -56.5017006 -0.127713E-09  0.138E-04    3.20     131.9  T
   3    -56.5017006 -0.649933E-10  0.113E-04    3.20     162.2  T

   *** convergence criteria satisfied after 3 iterations ***

         #    Occupation            Energy/Eh            Energy/eV
      -------------------------------------------------------------
         1        2.0000           -1.0657498             -29.0005
       ...           ...                  ...                  ...
        43        2.0000           -0.4318163             -11.7503
        44        2.0000           -0.4274178             -11.6306
        45        2.0000           -0.4244256             -11.5492
        46        2.0000           -0.4082690             -11.1096
        47        2.0000           -0.4043385             -11.0026
        48        2.0000           -0.4015292             -10.9262
        49        2.0000           -0.3682068             -10.0194 (HOMO)
        50                         -0.2505233              -6.8171 (LUMO)
        51                         -0.2478638              -6.7447
        52                         -0.2428595              -6.6085
        53                         -0.2231470              -6.0721
        54                         -0.2141302              -5.8268
       ...                                ...                  ...
        97                          0.6603482              17.9690
      -------------------------------------------------------------
                  HL-Gap            0.1176835 Eh            3.2023 eV
             Fermi-level           -0.3093650 Eh           -8.4183 eV

 SCC (total)                   0 d,  0 h,  0 min,  0.009 sec
 SCC setup                      ...        0 min,  0.000 sec (  0.757%)
 Dispersion                     ...        0 min,  0.000 sec (  1.077%)
 classical contributions        ...        0 min,  0.000 sec (  0.327%)
 integral evaluation            ...        0 min,  0.001 sec ( 11.890%)
 iterations                     ...        0 min,  0.004 sec ( 45.056%)
 molecular gradient             ...        0 min,  0.004 sec ( 39.077%)
 printout                       ...        0 min,  0.000 sec (  1.669%)

         :::::::::::::::::::::::::::::::::::::::::::::::::::::
         ::                     SUMMARY                     ::
         :::::::::::::::::::::::::::::::::::::::::::::::::::::
         :: total energy             -55.769639966219 Eh    ::
         :: gradient norm              0.000398167584 Eh/a0 ::
         :: HOMO-LUMO gap              3.202331646370 eV    ::
         ::.................................................::
         :: SCC energy               -56.501700558534 Eh    ::
         :: -> isotropic ES            0.059339245253 Eh    ::
         :: -> anisotropic ES         -0.001221676910 Eh    ::
         :: -> anisotropic XC          0.017567468877 Eh    ::
         :: -> dispersion             -0.037868270395 Eh    ::
         :: repulsion energy           0.731686185184 Eh    ::
         :: add. restraining           0.000000000000 Eh    ::
         :: total charge               0.000000000000 e     ::
         :::::::::::::::::::::::::::::::::::::::::::::::::::::

           -------------------------------------------------
          |                Property Printout                |
           -------------------------------------------------

    * Orbital Energies and Occupations

         #    Occupation            Energy/Eh            Energy/eV
      -------------------------------------------------------------
         1        2.0000           -1.0657498             -29.0005
       ...           ...                  ...                  ...
        37        2.0000           -0.4694329             -12.7739
        38        2.0000           -0.4624316             -12.5834
        39        2.0000           -0.4526468             -12.3171
        40        2.0000           -0.4436217             -12.0716
        41        2.0000           -0.4408588             -11.9964
        42        2.0000           -0.4363912             -11.8748
        43        2.0000           -0.4318163             -11.7503
        44        2.0000           -0.4274178             -11.6306
        45        2.0000           -0.4244256             -11.5492
        46        2.0000           -0.4082690             -11.1096
        47        2.0000           -0.4043385             -11.0026
        48        2.0000           -0.4015292             -10.9262
        49        2.0000           -0.3682068             -10.0194 (HOMO)
        50                         -0.2505233              -6.8171 (LUMO)
        51                         -0.2478638              -6.7447
        52                         -0.2428595              -6.6085
        53                         -0.2231470              -6.0721
        54                         -0.2141302              -5.8268
        55                         -0.1617203              -4.4006
        56                         -0.1327240              -3.6116
        57                         -0.1213180              -3.3012
        58                         -0.0958194              -2.6074
        59                         -0.0021033              -0.0572
        60                          0.0033373               0.0908
       ...                                ...                  ...
        97                          0.6603482              17.9690
      -------------------------------------------------------------
                  HL-Gap            0.1176835 Eh            3.2023 eV
             Fermi-level           -0.3093650 Eh           -8.4183 eV

     #   Z          covCN         q      C6AA      α(0)
     1   6 C        2.918    -0.037    28.922     8.819
     2   6 C        2.919    -0.030    28.741     8.791
     3   6 C        2.922    -0.044    29.091     8.845
     4   6 C        2.910     0.068    26.470     8.436
     5   6 C        2.980    -0.003    28.099     8.695
     6   6 C        2.924    -0.036    28.886     8.814
     7   6 C        3.809    -0.095    22.310     6.724
     8   6 C        2.695     0.364    20.827     7.469
     9   8 O        0.856    -0.399    21.669     6.241
    10   8 O        1.659    -0.385    20.551     6.120
    11   7 N        2.697    -0.152    24.284     7.319
    12   6 C        2.962     0.059    26.681     8.473
    13   6 C        2.896     0.066    26.518     8.443
    14   6 C        2.953    -0.044    29.080     8.845
    15   6 C        2.923    -0.040    28.993     8.830
    16   6 C        2.958    -0.045    29.107     8.849
    17   6 C        2.891     0.076    26.295     8.407
    18  17 Cl       0.966    -0.164   104.285    15.623
    19  17 Cl       0.966    -0.177   104.715    15.655
    20   1 H        0.926     0.037     2.490     2.468
    21   1 H        0.926     0.037     2.494     2.469
    22   1 H        0.926     0.036     2.504     2.474
    23   1 H        0.926     0.043     2.404     2.425
    24   1 H        0.925     0.075     2.027     2.227
    25   1 H        0.925     0.074     2.040     2.234
    26   1 H        0.804     0.329     0.640     1.257
    27   1 H        0.860     0.202     1.097     1.641
    28   1 H        0.926     0.062     2.177     2.307
    29   1 H        0.926     0.056     2.250     2.345
    30   1 H        0.926     0.065     2.138     2.286

 Mol. C6AA /au·bohr⁶  :      15045.904590
 Mol. C8AA /au·bohr⁸  :     410988.377856
 Mol. α(0) /au        :        193.531887


Wiberg/Mayer (AO) data.
largest (>0.10) Wiberg bond orders for each atom

 ---------------------------------------------------------------------------
     #   Z sym  total        # sym  WBO       # sym  WBO       # sym  WBO
 ---------------------------------------------------------------------------
     1   6 C    3.982 --     6 C    1.437     2 C    1.427    20 H    0.971
     2   6 C    3.989 --     3 C    1.453     1 C    1.427    21 H    0.971
                             5 C    0.101
     3   6 C    3.990 --     2 C    1.453     4 C    1.368    22 H    0.967
                             6 C    0.104
     4   6 C    3.968 --     3 C    1.368     5 C    1.340    11 N    1.080
     5   6 C    3.978 --     6 C    1.424     4 C    1.340     7 C    0.978
                             2 C    0.101
     6   6 C    3.991 --     1 C    1.437     5 C    1.424    23 H    0.968
                             3 C    0.104
     7   6 C    3.991 --     5 C    0.978    24 H    0.965     8 C    0.964
                            25 H    0.960
     8   6 C    3.910 --     9 O    1.779    10 O    1.111     7 C    0.964
     9   8 O    2.053 --     8 C    1.779    10 O    0.168
    10   8 O    2.193 --     8 C    1.111    26 H    0.865     9 O    0.168
    11   7 N    3.424 --    12 C    1.155     4 C    1.080    27 H    0.899
    12   6 C    3.979 --    17 C    1.310    13 C    1.306    11 N    1.155
    13   6 C    3.903 --    14 C    1.429    12 C    1.306    19 Cl   0.962
    14   6 C    3.987 --    13 C    1.429    15 C    1.418    28 H    0.966
    15   6 C    3.982 --    16 C    1.428    14 C    1.418    29 H    0.968
    16   6 C    3.987 --    15 C    1.428    17 C    1.419    30 H    0.966
    17   6 C    3.910 --    16 C    1.419    12 C    1.310    18 Cl   0.976
    18  17 Cl   1.119 --    17 C    0.976
    19  17 Cl   1.109 --    13 C    0.962
    20   1 H    0.998 --     1 C    0.971
    21   1 H    0.998 --     2 C    0.971
    22   1 H    0.998 --     3 C    0.967
    23   1 H    0.998 --     6 C    0.968
    24   1 H    0.994 --     7 C    0.965
    25   1 H    0.994 --     7 C    0.960
    26   1 H    0.891 --    10 O    0.865
    27   1 H    0.959 --    11 N    0.899
    28   1 H    0.995 --    14 C    0.966
    29   1 H    0.997 --    15 C    0.968
    30   1 H    0.995 --    16 C    0.966
 ---------------------------------------------------------------------------

Topologies differ in total number of bonds
Writing topology from bond orders to xtbtopo.mol

molecular dipole:
                 x           y           z       tot (Debye)
 q only:        0.989      -0.051       0.101
   full:        0.928       0.149      -0.127       2.410
molecular quadrupole (traceless):
                xx          xy          yy          xz          yz          zz
 q only:       -0.061       3.635       1.023      -3.029       3.675      -0.962
  q+dip:       -1.772       3.814       4.067      -4.819       0.437      -2.295
   full:       -4.566       3.701       4.202      -4.346       0.872       0.364

           -------------------------------------------------
          |                Geometry Summary                 |
           -------------------------------------------------

      molecular mass/u    :      296.1490391
   center of mass at/Å    :        0.1877980       0.2226073      -0.0759396
  moments of inertia/u·Å² :        0.1163601E+04   0.1903887E+04   0.2712571E+04
rotational constants/cm⁻¹ :        0.1448747E-01   0.8854326E-02   0.6214633E-02

 * 29 selected distances

     #   Z          #   Z                                           value/Å
     1   6 C        2   6 C                                       1.3846503
     2   6 C        3   6 C                                       1.3806840
     3   6 C        4   6 C                                       1.3936780
     4   6 C        5   6 C                                       1.4001812
     1   6 C        6   6 C                                       1.3834163
     5   6 C        6   6 C                                       1.3863348
     8   6 C        9   8 O                                       1.1985235
     8   6 C       10   8 O                                       1.3460308
     4   6 C       11   7 N                                       1.3952671
    11   7 N       12   6 C                                       1.3732326
    12   6 C       13   6 C                                       1.4044607
    13   6 C       14   6 C                                       1.3802066
    14   6 C       15   6 C                                       1.3846477
    15   6 C       16   6 C                                       1.3835151
    12   6 C       17   6 C                                       1.4038478
    16   6 C       17   6 C                                       1.3833787
    17   6 C       18  17 Cl                                      1.7323265
    13   6 C       19  17 Cl                                      1.7361913 (max)
     1   6 C       20   1 H                                       1.0790237
     2   6 C       21   1 H                                       1.0796326
     3   6 C       22   1 H                                       1.0801602
     6   6 C       23   1 H                                       1.0798761
     7   6 C       24   1 H                                       1.0892770
     7   6 C       25   1 H                                       1.0898926
    10   8 O       26   1 H                                       0.9702231 (min)
    11   7 N       27   1 H                                       1.0139209
    14   6 C       28   1 H                                       1.0783915
    15   6 C       29   1 H                                       1.0777205
    16   6 C       30   1 H                                       1.0782760

 * 7 distinct bonds (by element types)

   Z      Z             #   av. dist./Å        max./Å        min./Å
   1 H    6 C           9     1.0813611     1.0898926     1.0777205
   6 C    6 C          12     1.3890834     1.4044607     1.3802066
   1 H    7 N           1     1.0139209     1.0139209     1.0139209
   6 C    7 N           2     1.3842498     1.3952671     1.3732326
   1 H    8 O           1     0.9702231     0.9702231     0.9702231
   6 C    8 O           2     1.2722772     1.3460308     1.1985235
   6 C   17 Cl          2     1.7342589     1.7361913     1.7323265


optimized geometry written to: xtbopt.xyz


           -------------------------------------------------
          | TOTAL ENERGY              -55.769639966219 Eh   |
          | GRADIENT NORM               0.000398167584 Eh/α |
          | HOMO-LUMO GAP               3.202331646370 eV   |
           -------------------------------------------------
########################################################################
[WARNING] Runtime exception occurred
-2- restart_readRestart: Dimension missmatch in restart file.
-1- restart_readRestart: Number of electron missmatch in restart file.
########################################################################

------------------------------------------------------------------------
 * finished run on 2024/09/20 at 14:37:22.001     
------------------------------------------------------------------------
 total:
 * wall-time:     0 d,  0 h,  0 min,  0.590 sec
 *  cpu-time:     0 d,  0 h,  0 min,  4.415 sec
 * ratio c/w:     7.484 speedup
 SCF:
 * wall-time:     0 d,  0 h,  0 min,  0.033 sec
 *  cpu-time:     0 d,  0 h,  0 min,  0.233 sec
 * ratio c/w:     7.030 speedup
 ANC optimizer:
 * wall-time:     0 d,  0 h,  0 min,  0.382 sec
 *  cpu-time:     0 d,  0 h,  0 min,  2.860 sec
 * ratio c/w:     7.490 speedup

