21
 energy: -38.964263741486 gnorm: 0.166154609619 xtb: 6.6.0 (conda-forge)
C           -3.14450000000000       -0.09080000000000       -0.14380000000000
N           -1.75500000000000       -0.52660000000000       -0.05210000000000
C           -1.29860000000000       -1.80290000000000       -0.00460000000000
N            0.05660000000000       -1.88560000000000        0.06480000000000
C            0.43670000000000       -0.59190000000000        0.05940000000000
C           -0.64310000000000        0.22480000000000       -0.01290000000000
C           -0.47710000000000        1.60340000000000       -0.05080000000000
O           -1.46300000000000        2.38470000000000       -0.11950000000000
N            0.79740000000000        2.09230000000000       -0.01660000000000
C            1.88420000000000        1.25440000000000        0.05390000000000
O            3.04410000000000        1.75110000000000        0.06310000000000
N            1.71200000000000       -0.11220000000000        0.11060000000000
C            2.86160000000000       -1.02480000000000        0.14680000000000
H           -3.29780000000000        0.47470000000000       -1.08670000000000
H           -3.82730000000000       -0.96700000000000       -0.13780000000000
H           -3.39150000000000        0.55830000000000        0.72230000000000
H           -1.94350000000000       -2.67200000000000       -0.02280000000000
H            0.94880000000000        3.12640000000000       -0.05180000000000
H            3.67500000000000       -0.60550000000000        0.77670000000000
H            2.58260000000000       -2.00650000000000        0.58570000000000
H            3.24220000000000       -1.18410000000000       -0.88390000000000
21
 energy: -38.980885988207 gnorm: 0.073972445744 xtb: 6.6.0 (conda-forge)
C           -3.13415912852070       -0.10757879891522       -0.14276588602294
N           -1.76204484256604       -0.54628465767557       -0.05309012042936
C           -1.29770490364509       -1.81215625878777       -0.00342425836877
N            0.03268532414350       -1.88966878149553        0.06661037565345
C            0.43737401731192       -0.59998157891585        0.05869729879976
C           -0.65452912163858        0.23939932393477       -0.01426320550478
C           -0.50249339195852        1.64385979294836       -0.05253093421204
O           -1.44799698461128        2.43618314706521       -0.12064035716610
N            0.80331027956570        2.07691430006551       -0.01379689276065
C            1.90548913899389        1.24656570293830        0.05478483068026
O            3.03364333942180        1.72712138127715        0.06951208167441
N            1.71549998802672       -0.11669519408591        0.11019687529992
C            2.85655058256771       -1.01514012590746        0.14460219845196
H           -3.28238478294483        0.46470425850269       -1.06428433873817
H           -3.80032891924670       -0.97443177490733       -0.13642270191826
H           -3.37188147056887        0.54659803891895        0.70229708970934
H           -1.93318907405830       -2.67649539205712       -0.01994939574426
H            0.97030981591112        3.08436170919145       -0.04749956043034
H            3.65042856391940       -0.57806706678027        0.75867889496590
H            2.54338020460324       -1.97226176831169        0.57228988722594
H            3.23784136529392       -1.17674625700268       -0.86900188116527
21
 energy: -38.985188433638 gnorm: 0.018599649232 xtb: 6.6.0 (conda-forge)
C           -3.12561145307112       -0.12026998965743       -0.14185639167648
N           -1.76468652373386       -0.56193298106183       -0.05426561987962
C           -1.29040477046753       -1.81794240028879       -0.00096180773709
N            0.02059989693903       -1.88526155790799        0.06585682334785
C            0.43476349832294       -0.59808465059823        0.05498741570813
C           -0.66329293882703        0.25406578879859       -0.01760866992631
C           -0.53148155562958        1.67837536351717       -0.05609598077997
O           -1.43710114855922        2.48579994259063       -0.12198753044056
N            0.80401329133978        2.05693816646295       -0.01073132407716
C            1.92653509255803        1.24293875165907        0.05589526401735
O            3.03514916600701        1.71538907318160        0.07519369825176
N            1.71206599263871       -0.11687976314432        0.10677975837822
C            2.84651648316104       -1.01129765042178        0.14283090733577
H           -3.27208530332419        0.45314528168498       -1.05622355555498
H           -3.78475104455670       -0.98202845108342       -0.13461672688817
H           -3.35797206758305        0.53506444911644        0.69621600544284
H           -1.92001344205422       -2.68306243499814       -0.01441329790419
H            0.98817263590437        3.04847157126232       -0.04182226471435
H            3.62854181153909       -0.56277473046751        0.74968822509557
H            2.51698045224393       -1.95499680619045        0.56497659700585
H            3.23386192715254       -1.17545697245384       -0.86184152500447
21
 energy: -38.985608281037 gnorm: 0.008928725616 xtb: 6.6.0 (conda-forge)
C           -3.12678733111411       -0.12598193012585       -0.14056698742079
N           -1.76488867608471       -0.56455284391541       -0.05588435536826
C           -1.28567293173348       -1.81841941226744       -0.00100497637466
N            0.02575198212489       -1.87991874319404        0.06394917198813
C            0.43360806864659       -0.59173421239763        0.04941932415766
C           -0.66573284696672        0.25947967248082       -0.02224437174351
C           -0.53902265132964        1.68754029316465       -0.05950919679433
O           -1.43123662640172        2.50812357146634       -0.12368454585718
N            0.80407843370524        2.05020312783118       -0.01019901676862
C            1.93226537371951        1.24358974295629        0.05479634643653
O            3.04233991886503        1.71864267950284        0.08114449711002
N            1.70984834496605       -0.11474534691402        0.10088745500159
C            2.84149883865615       -1.01359064311270        0.14265548354167
H           -3.27612944021004        0.44594877622842       -1.05673745344679
H           -3.78562642483185       -0.99025923779248       -0.13141431603736
H           -3.35830680439132        0.52885077304473        0.69955635272004
H           -1.91382900670252       -2.68624855866641       -0.01011911446434
H            0.99674185452772        3.04303972645009       -0.03682907170198
H            3.62220719436732       -0.56286612498670        0.75166368243427
H            2.50625458500938       -1.95598623873499        0.56584185667315
H            3.23243814517824       -1.18091507101770       -0.86172076408524
21
 energy: -38.985744209084 gnorm: 0.003325630584 xtb: 6.6.0 (conda-forge)
C           -3.12892423660796       -0.13119524948292       -0.13895994775574
N           -1.76431610358158       -0.56492765958773       -0.05770195651134
C           -1.28058276671336       -1.81692612915522       -0.00109933923097
N            0.03304897368286       -1.87273387797229        0.06086542681841
C            0.43310669900643       -0.58302923391451        0.04338947536113
C           -0.66736777371005        0.26485441979367       -0.02782591127739
C           -0.54318635853865        1.69357732938458       -0.06299276241989
O           -1.42337330662016        2.52540572400014       -0.12709212906951
N            0.80415247230744        2.04587607382105       -0.00969620762156
C            1.93546762230812        1.24570376171732        0.05631944875585
O            3.04528319728988        1.72401623136753        0.08690272667678
N            1.70930397447957       -0.11174506646072        0.09440390850323
C            2.83714843886491       -1.01742729317342        0.14274714461783
H           -3.28432158087015        0.43810542780529       -1.05690547299707
H           -3.78664682521559       -0.99828664380583       -0.12703941528490
H           -3.36164501752161        0.52243079264435        0.70296422493068
H           -1.90703135903417       -2.68710906143701       -0.00629399719764
H            1.00280780045176        3.04041924651782       -0.03224471291039
H            3.61851578227546       -0.56879487325992        0.75405778942839
H            2.49768919754236       -1.95883188523233        0.56716534911830
H            3.23067117020446       -1.18918203356987       -0.86096364193420
21
 energy: -38.985763072481 gnorm: 0.002260595467 xtb: 6.6.0 (conda-forge)
C           -3.12978849267376       -0.13331648079443       -0.13805300399216
N           -1.76388651936990       -0.56413582175813       -0.05854510009349
C           -1.27896011262670       -1.81552267557221       -0.00143916213456
N            0.03520766141047       -1.86969019058575        0.05979975942424
C            0.43309519155057       -0.57929009131620        0.04079299551988
C           -0.66783785748464        0.26688255998242       -0.03069618807749
C           -0.54298191534595        1.69474774014769       -0.06461288021299
O           -1.41993900952997        2.52951355975194       -0.12886737818420
N            0.80474343358291        2.04583595537269       -0.00970924539370
C            1.93625822657213        1.24700611306577        0.05679313121045
O            3.04545235297400        1.72648452958539        0.09062672887268
N            1.71020201111451       -0.11065657882199        0.09116518873565
C            2.83565689647346       -1.01927812817937        0.14264989205067
H           -3.28820007530354        0.43464638172950       -1.05633424408377
H           -3.78554240279147       -1.00207589290785       -0.12455570439934
H           -3.36309251032923        0.51990029627187        0.70409190878725
H           -1.90456914314645       -2.68619716063465       -0.00546323603931
H            1.00362315571501        3.04058858177185       -0.03006208097047
H            3.61771887451167       -0.57209598925763        0.75430387748753
H            2.49345888559008       -1.95915644543699        0.56861099914087
H            3.22918134910680       -1.19399026241392       -0.86049625764774
21
 energy: -38.985773449410 gnorm: 0.001139519711 xtb: 6.6.0 (conda-forge)
C           -3.13066418727478       -0.13564708424151       -0.13711923194318
N           -1.76346032358554       -0.56303107206817       -0.05966548384453
C           -1.27754548544204       -1.81389488669478       -0.00170089859943
N            0.03668709248815       -1.86684923226577        0.05823029970589
C            0.43320985404183       -0.57573017094790        0.03788330490270
C           -0.66835891188346        0.26891358048294       -0.03416858151896
C           -0.54194127919310        1.69583894840466       -0.06647492212527
O           -1.41673535663199        2.53274736351952       -0.13101798465865
N            0.80590845066111        2.04679880676257       -0.00974374968959
C            1.93716506111279        1.24846057292348        0.05805364104923
O            3.04578377360272        1.72845199120328        0.09594164383210
N            1.71151297313180       -0.10966523983984        0.08751766231490
C            2.83411646103889       -1.02111466451112        0.14224829692554
H           -3.29265822894709        0.43083631234831       -1.05552163588312
H           -3.78354557632093       -1.00636635989107       -0.12145173291326
H           -3.36433681295526        0.51744162737359        0.70489158671688
H           -1.90229437489849       -2.68492313876315       -0.00435387113092
H            1.00388607302143        3.04151340421240       -0.02758287422858
H            3.61710678192332       -0.57488453015958        0.75329944016697
H            2.48866205386715       -1.95853519387056        0.57076113730963
H            3.22730196224350       -1.20016103397730       -0.86002604638834
21
 energy: -38.985776735663 gnorm: 0.000855131974 xtb: 6.6.0 (conda-forge)
C           -3.13117873679176       -0.13705044651661       -0.13646964924009
N           -1.76328338852289       -0.56233773564822       -0.06074256013151
C           -1.27686949477293       -1.81303398746763       -0.00213409164668
N            0.03704399976654       -1.86564159117011        0.05705423227925
C            0.43344737475339       -0.57419729470083        0.03547165757495
C           -0.66865316487644        0.26996208754488       -0.03698791968820
C           -0.54086651731284        1.69667850172482       -0.06794310365220
O           -1.41537905531046        2.53402849953033       -0.13232228690992
N            0.80703817049248        2.04796072536659       -0.00997048222448
C            1.93792543209474        1.24925584195040        0.05914697832221
O            3.04648383059638        1.72878488519310        0.10128688001805
N            1.71225383553350       -0.10912996060332        0.08472170216050
C            2.83313324998468       -1.02193937536717        0.14188703659690
H           -3.29571524308213        0.42834405998836       -1.05495204157882
H           -3.78211656768107       -1.00893552317022       -0.11890942957029
H           -3.36465047788626        0.51639272238606        0.70522858044794
H           -1.90128217329901       -2.68420423323300       -0.00352935554617
H            1.00382785829703        3.04266417895884       -0.02550980615694
H            3.61714507510945       -0.57495844609282        0.75095352100492
H            2.48603437276994       -1.95712222903550        0.57353011733331
H            3.22546162013765       -1.20532067963796       -0.85980997939273
