21
 energy: -38.815173102258 gnorm: 0.000783726688 xtb: 6.6.0 (conda-forge)
C            3.27044052542153       -0.37381354043932        1.51832801877416
C            2.03954691610553       -0.24776896786988        0.68105948028866
O            1.94096089108585       -0.49156840972042       -0.49323651573288
S            0.66226918313720        0.36726568899512        1.62989345719746
C           -0.57602386331394        0.60436796104876        0.37376496668699
C           -1.12022744553358        1.87706351010948        0.27160044968140
C           -2.05227255099403        2.16224689909704       -0.70988189462968
C           -2.42544008036617        1.18071567407599       -1.61541907840037
C           -1.88339464689658       -0.08557237078967       -1.51512782587849
C           -0.97091536807209       -0.40172249290835       -0.50805374661744
C           -0.50247350512671       -1.80982730365564       -0.45544342190469
O           -0.49554503195915       -2.54870254526190       -1.41391430202085
O           -0.15554871503814       -2.22663181274061        0.76229286523362
H            3.01435249222703       -0.48427519887524        2.56838996825149
H            3.86625037764659       -1.21589100986146        1.17086825772551
H            3.86121902820445        0.53443738647251        1.39365041495837
H           -0.80187034676488        2.63853067563963        0.96686191509343
H           -2.47433450902935        3.15325185624912       -0.77470364380127
H           -3.13701203947193        1.40087747590535       -2.39598152372997
H           -2.16036198117046       -0.86768274725244       -2.20589102323239
H            0.10028066990800       -3.16530072821755        0.75094318205678
