12
 energy: -15.878387271451 gnorm: 0.031932217001 xtb: 6.6.0 (conda-forge)
C            0.80650000000000       -1.14310000000000        0.01490000000000
C            1.39330000000000        0.12680000000000       -0.00210000000000
C            0.58680000000000        1.26990000000000       -0.01700000000000
C           -0.80650000000000        1.14310000000000       -0.01490000000000
C           -1.39330000000000       -0.12680000000000        0.00210000000000
C           -0.58680000000000       -1.26990000000000        0.01710000000000
H            1.43040000000000       -2.02740000000000        0.02640000000000
H            2.47120000000000        0.22500000000000       -0.00380000000000
H            1.04070000000000        2.25240000000000       -0.03020000000000
H           -1.43040000000000        2.02740000000000       -0.02650000000000
H           -2.47120000000000       -0.22500000000000        0.00380000000000
H           -1.04070000000000       -2.25240000000000        0.03020000000000
12
 energy: -15.879624546280 gnorm: 0.004430467109 xtb: 6.6.0 (conda-forge)
C            0.79910886683927       -1.13262480527322        0.01475950138271
C            1.38051986374749        0.12565995530230       -0.00211473493771
C            0.58141262916630        1.25828037534432       -0.01688963743863
C           -0.79910891710185        1.13262461697799       -0.01477290514782
C           -1.38051978548917       -0.12565985972526        0.00211514821396
C           -0.58141259615342       -1.25828100381305        0.01687092794291
H            1.42178332459916       -2.01519040231328        0.02627969362698
H            2.45625778005779        0.22363287871175       -0.00374630566554
H            1.03442986868621        2.23879785952426       -0.03001628793761
H           -1.42178330543769        2.01519057412877       -0.02628915793202
H           -2.45625769202203       -0.22363283571444        0.00375986149666
H           -1.03443003689206       -2.23879735315013        0.03004389639612
12
 energy: -15.879640573888 gnorm: 0.000235404280 xtb: 6.6.0 (conda-forge)
C            0.79813977709206       -1.13124481893183        0.01475764496353
C            1.37883966008375        0.12551793163474       -0.00210144877704
C            0.58070057983201        1.25675995643192       -0.01685100953790
C           -0.79813980487053        1.13124487825022       -0.01475287583881
C           -1.37883960975486       -0.12551783643904        0.00210330771699
C           -0.58070052631519       -1.25675983675770        0.01686651240431
H            1.42090561292141       -2.01393247516015        0.02625566831982
H            2.45471759429436        0.22348142699141       -0.00375642157672
H            1.03379306592720        2.23739561405141       -0.03001813047579
H           -1.42090557325700        2.01393241252539       -0.02626514102767
H           -2.45471754114216       -0.22348168297010        0.00374892331444
H           -1.03379323481107       -2.23739556962628        0.03001297051485
12
 energy: -15.879640652425 gnorm: 0.000045288180 xtb: 6.6.0 (conda-forge)
C            0.79818056037225       -1.13129831773277        0.01474563775421
C            1.37890682172434        0.12552911629861       -0.00211465889637
C            0.58072622328809        1.25682644401976       -0.01686860763633
C           -0.79818057016957        1.13129822761896       -0.01475247575909
C           -1.37890681551981       -0.12552913066151        0.00211069967328
C           -0.58072619802297       -1.25682666423495        0.01685301034676
H            1.42104052216152       -2.01411121615576        0.02627320866182
H            2.45493960841616        0.22349346346471       -0.00374527176986
H            1.03389307323972        2.23759821196273       -0.03001091474067
H           -1.42104050007572        2.01411135027905       -0.02626405716952
H           -2.45493958771275       -0.22349343999772        0.00375312578381
H           -1.03389313770126       -2.23759804486112        0.03002030375197
