24
 energy: -42.131861447397 gnorm: 0.161583979582 xtb: 6.6.0 (conda-forge)
C            3.26300000000000        0.66560000000000       -0.21270000000000
N            2.13090000000000       -0.25520000000000       -0.19970000000000
C            2.16940000000000       -1.59870000000000       -0.37710000000000
N            0.94220000000000       -2.17970000000000       -0.32860000000000
C            0.12290000000000       -1.13140000000000       -0.10850000000000
C            0.82680000000000        0.02100000000000       -0.03340000000000
C            0.17640000000000        1.23210000000000        0.16280000000000
O            0.83070000000000        2.30980000000000        0.21200000000000
N           -1.19410000000000        1.22160000000000        0.29150000000000
C           -1.89560000000000        0.03160000000000        0.18110000000000
O           -3.15820000000000        0.04070000000000        0.23340000000000
N           -1.23240000000000       -1.16450000000000        0.00710000000000
C           -1.96780000000000       -2.42820000000000       -0.13450000000000
C           -1.92340000000000        2.48920000000000        0.46330000000000
H            4.21460000000000        0.10900000000000       -0.34870000000000
H            3.14930000000000        1.38690000000000       -1.04900000000000
H            3.30900000000000        1.21690000000000        0.74980000000000
H            3.08170000000000       -2.15660000000000       -0.54540000000000
H           -1.32860000000000       -3.29890000000000        0.12490000000000
H           -2.84180000000000       -2.45190000000000        0.55100000000000
H           -2.32080000000000       -2.53760000000000       -1.18150000000000
H           -2.83900000000000        2.34400000000000        1.07560000000000
H           -2.20900000000000        2.89180000000000       -0.53120000000000
H           -1.30610000000000        3.24260000000000        0.99770000000000
24
 energy: -42.149081828899 gnorm: 0.069088891147 xtb: 6.6.0 (conda-forge)
C            3.25813878073560        0.64800645460788       -0.21385658190616
N            2.14177850115155       -0.26717145214475       -0.20293693201021
C            2.16923548012247       -1.60519597610607       -0.37701691075634
N            0.96331221998908       -2.17341516948048       -0.32727543073666
C            0.12257275915731       -1.13619230255686       -0.11067616282556
C            0.82891340349497        0.04219321284620       -0.03082626464242
C            0.18090519566726        1.28282993705179        0.16937794864748
O            0.79477255450037        2.35587816945423        0.22585681144119
N           -1.19522784464563        1.21747490612865        0.29118343410609
C           -1.91040286133928        0.02975789125433        0.18139157582536
O           -3.13661018265951        0.03763584344761        0.24404551641109
N           -1.23652896018336       -1.16236992871005        0.00848138910031
C           -1.96943658081068       -2.41036204158376       -0.13323845570259
C           -1.92661442791937        2.46600147530260        0.46021881383557
H            4.19036957609535        0.09242208952502       -0.34855078047125
H            3.13926728038604        1.37039290148752       -1.02799356569532
H            3.29357756650429        1.20373866142158        0.72864753993325
H            3.07152866602791       -2.16223910272194       -0.54238611124314
H           -1.30647917989843       -3.24416176709508        0.11861120551432
H           -2.83286077796705       -2.41136831942149        0.53946597496139
H           -2.32028857745621       -2.52669106713029       -1.16409207067782
H           -2.82873866072086        2.29269745205682        1.05462507756433
H           -2.20811321998393        2.87130511576396       -0.51710878153400
H           -1.28297071024788        3.18893301660260        0.97395276086108
24
 energy: -42.153072921737 gnorm: 0.016332720466 xtb: 6.6.0 (conda-forge)
C            3.25482812892361        0.63466874590117       -0.21414666623988
N            2.14923626437013       -0.27829114423750       -0.20560587779217
C            2.16413589893258       -1.61201771282967       -0.37522466875929
N            0.97164161116530       -2.16449271054352       -0.32760928749195
C            0.12374977848729       -1.13167001847487       -0.11474749452083
C            0.83134872485884        0.05962720017805       -0.03126587769054
C            0.19448768311841        1.32412393730203        0.16997900702842
O            0.76991473791951        2.39684147756357        0.23709381053249
N           -1.18698533577629        1.20798223204063        0.28469652346888
C           -1.92337720614498        0.02936173657217        0.18089740855255
O           -3.12941126255988        0.03931164928622        0.25311946891140
N           -1.23389543092296       -1.15429209611588        0.00737204711169
C           -1.96596594221988       -2.39366611254537       -0.13203282117408
C           -1.92867899309126        2.44177761057739        0.45743312660204
H            4.17824177256536        0.07966038795322       -0.34763387190342
H            3.13438546344462        1.35660844556724       -1.02121648104881
H            3.28475038869140        1.19051816364080        0.72197436080867
H            3.06172765271407       -2.17204551157949       -0.53713424467491
H           -1.29190494059879       -3.20788059657411        0.11721778550272
H           -2.82295254215160       -2.37812225504425        0.53640512052911
H           -2.32058301043270       -2.51481827401415       -1.15526242390403
H           -2.82125124479164        2.24577074819723        1.04394899431761
H           -2.21682309520960        2.85031876836796       -0.51037119939767
H           -1.27651910129156        3.15082532881114        0.96201326123201
24
 energy: -42.153473046925 gnorm: 0.008020472474 xtb: 6.6.0 (conda-forge)
C            3.25972811822411        0.62927410679929       -0.21293254382983
N            2.15278570081514       -0.28133549154091       -0.20768024097313
C            2.16160912532046       -1.61505504345667       -0.37462968185386
N            0.96663108436397       -2.16136165652789       -0.32864441467945
C            0.12395892647331       -1.12451671194902       -0.12105750141513
C            0.83399945595704        0.06598388658843       -0.03692589619060
C            0.20225898830623        1.33607942441298        0.16353295098756
O            0.76328454415633        2.41425064367967        0.23835311573752
N           -1.18098625898604        1.20484062757484        0.27516946114575
C           -1.92529224301911        0.03183457857558        0.17593190266846
O           -3.13281147758095        0.04276254328385        0.26064743771259
N           -1.23130858598665       -1.14762191977620        0.00132038152001
C           -1.96390977282580       -2.38756171119762       -0.13059276762678
C           -1.93297149557997        2.43264322614776        0.45827004824947
H            4.18392803496870        0.07230984876380       -0.34432304976686
H            3.14231538740355        1.35144428678966       -1.02157492668508
H            3.28790027707114        1.18436367248833        0.72483942510492
H            3.05895639747385       -2.17906465160833       -0.53126558191499
H           -1.28830541968474       -3.20036256748003        0.12016451631830
H           -2.81967384757872       -2.36455600333402        0.54102922463202
H           -2.32287566437333       -2.51180861486285       -1.15324691073266
H           -2.82199980268865        2.22039679302284        1.04696473818047
H           -2.23149207509199        2.84208040834508       -0.50745619855830
H           -1.28562939713789        3.14508032526145        0.96400651196961
24
 energy: -42.153594426742 gnorm: 0.003268077733 xtb: 6.6.0 (conda-forge)
C            3.26571677264048        0.62452679431864       -0.21131402538121
N            2.15530964688020       -0.28292731852582       -0.20992139390333
C            2.15920274840107       -1.61685534093845       -0.37377788403156
N            0.96022163358249       -2.15796428215356       -0.33081398133774
C            0.12356893052687       -1.11657176940281       -0.12760156102384
C            0.83618426924108        0.07146756005431       -0.04348523405995
C            0.20800778178034        1.34342393768035        0.15740446145981
O            0.75735011386610        2.42593183932059        0.23592643901277
N           -1.17688121922603        1.20355436280430        0.26586129835618
C           -1.92498387335768        0.03408590683857        0.17458718629038
O           -3.13310012218812        0.04564605854907        0.26436380332962
N           -1.22963551725829       -1.14213533815764       -0.00562177445025
C           -1.96197521803610       -2.38427912752577       -0.12954536243316
C           -1.93787209727569        2.42720487940995        0.45979179683883
H            4.19053791161604        0.06535488470297       -0.33974774154472
H            3.15451429494933        1.34716033047354       -1.02151741868842
H            3.29378035442829        1.17850868437031        0.72802840517620
H            3.05610335171311       -2.18446058049880       -0.52523087804900
H           -1.28712385692852       -3.19801704417150        0.12224910176437
H           -2.81584053414164       -2.35690579543518        0.54568985915066
H           -2.32566484448745       -2.51202566823513       -1.15100951770981
H           -2.82159579618550        2.20275132600224        1.05330294619087
H           -2.24886792936777        2.83650854392830       -0.50305290044808
H           -1.29685680117261        3.14611715659152        0.96533437549137
24
 energy: -42.153613417346 gnorm: 0.002197562047 xtb: 6.6.0 (conda-forge)
C            3.26810208930069        0.62270597136614       -0.21002364036200
N            2.15556892156481       -0.28259402116927       -0.21082733201915
C            2.15840015738740       -1.61653868895202       -0.37345195727782
N            0.95833074706111       -2.15636077738696       -0.33136976763676
C            0.12309638045833       -1.11334973886462       -0.13085152462398
C            0.83643374307579        0.07366459390992       -0.04725740692321
C            0.20835520294022        1.34478409998053        0.15422470593470
O            0.75490456892358        2.42822921033101        0.23395915708167
N           -1.17735712039501        1.20427461765980        0.26159603982965
C           -1.92514409428640        0.03501385612520        0.17272069915421
O           -3.13311972482648        0.04560358369338        0.26611336388586
N           -1.22991125949710       -1.14082626696139       -0.01016046913485
C           -1.96114645898798       -2.38429955701556       -0.12925628071663
C           -1.93978579928824        2.42679936001737        0.46095046999775
H            4.19216200741125        0.06151588277562       -0.33678657080714
H            3.16048073482018        1.34545009219155       -1.02062639223110
H            3.29618420299152        1.17619783894374        0.72966499986151
H            3.05493930908141       -2.18509876155509       -0.52298639608761
H           -1.28565080050063       -3.19743193467047        0.12370348678390
H           -2.81387088708953       -2.35603572574408        0.54745089542978
H           -2.32613511531959       -2.51458342973476       -1.14988094005429
H           -2.81987601585776        2.20004153556809        1.05859907389596
H           -2.25628354857507        2.83566454399547       -0.50013542654395
H           -1.29857724039251        3.14727371549640        0.96453121256349
24
 energy: -42.153629322438 gnorm: 0.001477211965 xtb: 6.6.0 (conda-forge)
C            3.27099612766221        0.62028681501045       -0.20800860094455
N            2.15548733555970       -0.28167495823469       -0.21212476736625
C            2.15745877284214       -1.61573065347372       -0.37257297517970
N            0.95658231511246       -2.15420806143811       -0.33283343916729
C            0.12225807122398       -1.10955501809107       -0.13565260541460
C            0.83633493365816        0.07657645575522       -0.05299936494348
C            0.20762853122420        1.34615121215378        0.14985889405727
O            0.75187339321343        2.43040270241084        0.23142649521640
N           -1.17922255778626        1.20580031670954        0.25613385268864
C           -1.92579873604442        0.03608388683331        0.17077937935416
O           -3.13332270116324        0.04500086222799        0.26895730778222
N           -1.23082546896218       -1.13956277395697       -0.01728096828212
C           -1.95993320670698       -2.38476976484484       -0.12942219148083
C           -1.94211935891156        2.42702446615357        0.46242481740218
H            4.19330577431390        0.05565453577507       -0.33212699029168
H            3.16869670480469        1.34339281332311       -1.01880780709936
H            3.29872469413134        1.17315971608286        0.73196332898398
H            3.05360699843452       -2.18530199500009       -0.51917699676089
H           -1.28246067422369       -3.19581355401874        0.12542364596606
H           -2.81078058840811       -2.35541361157015        0.54941652884236
H           -2.32679080062729       -2.51980123719929       -1.14851997899047
H           -2.81588626266153        2.19867404678082        1.06818786481900
H           -2.26790270352650        2.83493520625857       -0.49564953825508
H           -1.29781059315899        3.14878859235254        0.96050410906402
24
 energy: -42.153637737060 gnorm: 0.001582063170 xtb: 6.6.0 (conda-forge)
C            3.27283879274123        0.61848952351878       -0.20579395826213
N            2.15516965663250       -0.28072822273123       -0.21337789404142
C            2.15685666430100       -1.61501742894796       -0.37183235947557
N            0.95602098131204       -2.15292072320625       -0.33421859661571
C            0.12139234088518       -1.10744052276270       -0.14054274473510
C            0.83587808849467        0.07863879050182       -0.05867949644635
C            0.20629006715620        1.34713469104358        0.14589560416834
O            0.75035404243574        2.43138991342039        0.22972204620792
N           -1.18123658352308        1.20729986337469        0.25164358731418
C           -1.92667746979350        0.03695512257078        0.16865630990707
O           -3.13363773356956        0.04439978022589        0.27267271657898
N           -1.23188696077635       -1.13860748384122       -0.02454841134403
C           -1.95890365320988       -2.38518609136931       -0.12996448080293
C           -1.94354801957204        2.42743116117199        0.46376777206784
H            4.19348533406840        0.05096411056032       -0.32732002480432
H            3.17509799181207        1.34208957305463       -1.01650451014079
H            3.29948558474817        1.17099424857238        0.73433393825471
H            3.05301997847817       -2.18520049248938       -0.51518061831151
H           -1.27914248208820       -3.19357948684664        0.12678298803196
H           -2.80833509361022       -2.35454103421477        0.55041103581011
H           -2.32739898080477       -2.52546638544173       -1.14755441266524
H           -2.81034829703904        2.19927505267099        1.07951137225302
H           -2.28048295375238        2.83320877809462       -0.49119225025575
H           -1.29419129532637        3.15051726307034        0.95321238730671
24
 energy: -42.153636290946 gnorm: 0.002687666200 xtb: 6.6.0 (conda-forge)
C            3.27471103170985        0.61666084272826       -0.20352462586007
N            2.15484607652961       -0.27976554185318       -0.21465842071922
C            2.15624524461635       -1.61429601350709       -0.37107235733627
N            0.95544984398238       -2.15161454669115       -0.33564674756610
C            0.12050851068632       -1.10529535600214       -0.14554949573900
C            0.83541032095743        0.08073455380840       -0.06448677753168
C            0.20492910124071        1.34813929196003        0.14184913442496
O            0.74882512702924        2.43239145968221        0.22798773116600
N           -1.18327923676461        1.20882596095951        0.24706099339232
C           -1.92757068924294        0.03784397442176        0.16649469321739
O           -3.13395623786909        0.04379629673816        0.27647066649224
N           -1.23296820817351       -1.13762486975239       -0.03198053183328
C           -1.95785633402011       -2.38560231247419       -0.13052603985924
C           -1.94500005564391        2.42783740395962        0.46513887768243
H            4.19367048425147        0.04619402885259       -0.32239542792095
H            3.18162281165482        1.34076676980987       -1.01414618386852
H            3.30023620897523        1.16878982422875        0.73676561178829
H            3.05243000209870       -2.18510189627696       -0.51108582879163
H           -1.27576374618127       -3.19129191595500        0.12816918525431
H           -2.80584639344583       -2.35363057134814        0.55141672206796
H           -2.32802552680441       -2.53124781998517       -1.14657822069309
H           -2.80464197557077        2.19989579309559        1.09114752014445
H           -2.29340722198802        2.83138639381804       -0.48663573035221
H           -1.29046913802766        3.15230824978262        0.94568525244092
24
 energy: -42.153642628184 gnorm: 0.001663797643 xtb: 6.6.0 (conda-forge)
C            3.27363063544982        0.61753798359327       -0.20387313650230
N            2.15492310998567       -0.28018043056319       -0.21433857467836
C            2.15661915511613       -1.61473867740602       -0.37118375472535
N            0.95595323149485       -2.15242153042106       -0.33571686756821
C            0.12076958824745       -1.10671958611703       -0.14456693993798
C            0.83542036054002        0.07963802603498       -0.06308089511504
C            0.20538506500226        1.34779890285046        0.14303713189960
O            0.75024524254420        2.43163195839713        0.22862200010105
N           -1.18227328266281        1.20820813076756        0.24863457687219
C           -1.92721174495926        0.03750015781987        0.16731176391015
O           -3.13368126934007        0.04427766116958        0.27555108182680
N           -1.23260366345075       -1.13777308750710       -0.03021003308662
C           -1.95835525639821       -2.38519167061357       -0.13066845148205
C           -1.94416258218180        2.42746091023367        0.46476002058498
H            4.19345987565982        0.04847643188447       -0.32313197978333
H            3.17905485138293        1.34152540563251       -1.01452559690303
H            3.29869120828716        1.16986617698750        0.73639756285759
H            3.05304948002034       -2.18520606412732       -0.51175407073199
H           -1.27709810965580       -3.19164387629340        0.12766950262093
H           -2.80696296545570       -2.35320017059485        0.55063307661718
H           -2.32803948878282       -2.52955603103677       -1.14719967439665
H           -2.80425784946435        2.20034094393745        1.09047115807467
H           -2.29228421055342        2.82987341247602       -0.48765652292914
H           -1.29017138082568        3.15259502289584        0.94471862247492
24
 energy: -42.153651956021 gnorm: 0.001494172266 xtb: 6.6.0 (conda-forge)
C            3.27105618036611        0.61962522298684       -0.20304911281937
N            2.15508977515112       -0.28115227832143       -0.21383024144546
C            2.15771619664632       -1.61585659430396       -0.37138893075300
N            0.95726866666256       -2.15452007653545       -0.33640657233338
C            0.12131103659655       -1.11021458411732       -0.14458915835541
C            0.83527097554709        0.07693298720907       -0.06195929420397
C            0.20654032789362        1.34695400268402        0.14458548843367
O            0.75479952207951        2.42930250067733        0.22971863264884
N           -1.17951735911790        1.20707645331485        0.25088670767984
C           -1.92610158135787        0.03701045289513        0.16799173765606
O           -3.13269204056936        0.04593016592545        0.27475935545879
N           -1.23192810898378       -1.13752545111669       -0.02920053649744
C           -1.95982492161309       -2.38393153871286       -0.13179069978709
C           -1.94233985841875        2.42627492853614        0.46446168213144
H            4.19328431279448        0.05398819906549       -0.32173155985698
H            3.17421322538640        1.34337362193523       -1.01392521222427
H            3.29343496763947        1.17242535404978        0.73724403309579
H            3.05493188011760       -2.18549571650684       -0.51202994358300
H           -1.28071956397178       -3.19194075170535        0.12718643042822
H           -2.81001886103620       -2.35070178207228        0.54784037671163
H           -2.32825743585069       -2.52699888299595       -1.14927153037900
H           -2.79676514829461        2.20275479035154        1.09973268989064
H           -2.30078536031395        2.82017593929562       -0.48803294554043
H           -1.28586682735287        3.15661303746165        0.93269860364389
24
 energy: -42.153659895088 gnorm: 0.001635080952 xtb: 6.6.0 (conda-forge)
C            3.27124801002622        0.61939686751954       -0.20120207960847
N            2.15513769573111       -0.28116340143692       -0.21402234738390
C            2.15788970195240       -1.61592715651137       -0.37097562021365
N            0.95727855816159       -2.15442074245563       -0.33755435742560
C            0.12124648205987       -1.11000507128716       -0.14707734524609
C            0.83517672204629        0.07710331513803       -0.06430580009032
C            0.20675433896419        1.34711804354465        0.14337841055724
O            0.75579141891283        2.42902214345343        0.22941533239870
N           -1.17920002038985        1.20752720884990        0.24934470058999
C           -1.92579431247350        0.03734459389015        0.16714474995354
O           -3.13212656681888        0.04658763196051        0.27569846804495
N           -1.23216881307798       -1.13696662657985       -0.03271609577220
C           -1.96008422576918       -2.38360344982366       -0.13301460314297
C           -1.94279410545169        2.42587452256823        0.46514875374314
H            4.19359896717019        0.05358044697105       -0.31799675600182
H            3.17619002964469        1.34312045522208       -1.01227788135337
H            3.29185972694597        1.17220881545198        0.73909829368249
H            3.05521248169545       -2.18567030516131       -0.51021028818476
H           -1.28115013487884       -3.19119685435109        0.12776388820415
H           -2.81036976216489       -2.34888909080300        0.54638356292994
H           -2.32820307604984       -2.52866616391919       -1.15026543012524
H           -2.78805064515207        2.20470335436324        1.11377998088776
H           -2.31572481197974        2.81201154761274       -0.48516242583995
H           -1.28161765910433        3.16100991578364        0.91952488939645
24
 energy: -42.153397937816 gnorm: 0.015709177425 xtb: 6.6.0 (conda-forge)
C            3.27272081446577        0.61787121337474       -0.18450187606967
N            2.15609496334562       -0.28190562689591       -0.21389858015537
C            2.15965439259630       -1.61673345360067       -0.36838838601187
N            0.95784013896230       -2.15405767834260       -0.34560644122544
C            0.12131412957819       -1.10849165240224       -0.16630322267222
C            0.83506535498961        0.07796102500396       -0.08095102202410
C            0.21015024123761        1.34810703829962        0.13610751080769
O            0.76631137809725        2.42609680400895        0.23093705182435
N           -1.17525138384117        1.21141773670437        0.23823300871190
C           -1.92235678095351        0.04066901493537        0.15733002186892
O           -3.12705560812147        0.05394868663967        0.28136974186205
N           -1.23383526741014       -1.13284513960100       -0.06092513858075
C           -1.96316711684776       -2.38037452838427       -0.14566714199055
C           -1.94698907129110        2.42171237043690        0.47104579248355
H            4.19669399397352        0.05139763723870       -0.28495931982694
H            3.19160870540553        1.34034751045543       -0.99802761107905
H            3.27769261382999        1.17202154913710        0.75510218264885
H            3.05753917887017       -2.18755157314334       -0.49712104062890
H           -1.28812393491501       -3.18580872889951        0.13283291698732
H           -2.81733261509816       -2.33219743911627        0.52776457740462
H           -2.32407748546523       -2.54097345704492       -1.16279051867974
H           -2.70018848832294        2.22742384616143        1.25121771061291
H           -2.46246505136467        2.72613976481518       -0.45732112361266
H           -1.24174310172074        3.20592508021933        0.78442090734510
24
 energy: -42.153692188335 gnorm: 0.003031100251 xtb: 6.6.0 (conda-forge)
C            3.27235310141926        0.61841514631944       -0.19295409183659
N            2.15562286713615       -0.28141881535682       -0.21405386343609
C            2.15873112206651       -1.61608232808305       -0.36989156156922
N            0.95742758904409       -2.15380328908164       -0.34188208090385
C            0.12134329930664       -1.10857917597982       -0.15682660400427
C            0.83523074019901        0.07790272788458       -0.07266917881863
C            0.20852120421775        1.34742844472771        0.14035294503562
O            0.76061300560797        2.42755328740668        0.23081931373471
N           -1.17753758671874        1.20969865388170        0.24381512000272
C           -1.92401946629826        0.03905490582191        0.16182057056704
O           -3.12946829643563        0.05017230825086        0.27790853956317
N           -1.23313667977327       -1.13515524597807       -0.04729919203182
C           -1.96163036463316       -2.38234772850847       -0.13931726881747
C           -1.94527783657697        2.42385846691709        0.46838993014008
H            4.19519815584885        0.05179716237343       -0.30114148175966
H            3.18488332069394        1.34122455987184       -1.00547186276359
H            3.28517893815503        1.17209101932375        0.74673824836780
H            3.05607753394470       -2.18645950095346       -0.50413964665334
H           -1.28473546009189       -3.18867248700355        0.13132810322765
H           -2.81386614581906       -2.34049117116402        0.53688502411862
H           -2.32559845339852       -2.53585778953744       -1.15646734547385
H           -2.74330297874783        2.21795954875867        1.18183033863843
H           -2.38874780250517        2.76851098667503       -0.46917501308651
H           -1.26375980664141        3.18330031343367        0.85130105775906
24
 energy: -42.153704070616 gnorm: 0.001986822131 xtb: 6.6.0 (conda-forge)
C            3.27239038565292        0.61842210447118       -0.19328211259667
N            2.15577637341405       -0.28158586993480       -0.21343447889986
C            2.15863420525388       -1.61614889314851       -0.36995211579817
N            0.95726379476834       -2.15371427006124       -0.34190983176018
C            0.12142800067642       -1.10851665408841       -0.15555636481420
C            0.83545324350624        0.07786357418167       -0.07099997485041
C            0.20894766599467        1.34746546789384        0.14183357224952
O            0.76073058237337        2.42768312100952        0.23256478725878
N           -1.17727878633038        1.20959780068639        0.24493799878788
C           -1.92388614950669        0.03908878855108        0.16244069190323
O           -3.12946590297120        0.05064482981492        0.27611712510682
N           -1.23296559343989       -1.13532072295853       -0.04575242883279
C           -1.96166537749101       -2.38214761316963       -0.13974980517410
C           -1.94534332071104        2.42372783748077        0.46799804941893
H            4.19526851111039        0.05189053582172       -0.30155651470351
H            3.18449032736833        1.34077833181338       -1.00617967548865
H            3.28546004127075        1.17260712194928        0.74610017548595
H            3.05582366119990       -2.18660546688592       -0.50509425728989
H           -1.28542609345680       -3.18885397312201        0.13128163431184
H           -2.81486251262167       -2.34039199209902        0.53522605387201
H           -2.32424186527791       -2.53492411091584       -1.15750821641679
H           -2.74031355689331        2.21912674747721        1.18361417595597
H           -2.39164477788889        2.76516924168669       -0.46815302625417
H           -1.26447285600047        3.18424406354624        0.84691453852845
24
 energy: -42.153730495828 gnorm: 0.001882444000 xtb: 6.6.0 (conda-forge)
C            3.27274395574683        0.61833803140621       -0.19394937356997
N            2.15660250416750       -0.28238179250405       -0.21023600948461
C            2.15837645017750       -1.61646257346231       -0.37053323361641
N            0.95686391885064       -2.15364071129138       -0.34095745602522
C            0.12186205449127       -1.10843713472455       -0.15019733806814
C            0.83659824892182        0.07744491990001       -0.06334220975203
C            0.21095506563085        1.34744031289639        0.14839139273342
O            0.76214819915936        2.42776214898524        0.24092079561672
N           -1.17595563329340        1.20935661649100        0.24926899769904