24
 energy: -42.156111903975 gnorm: 0.147507115334 xtb: 6.6.0 (conda-forge)
C            3.26300000000000        0.66560000000000       -0.21270000000000
N            2.13090000000000       -0.25520000000000       -0.19970000000000
C            2.16940000000000       -1.59870000000000       -0.37710000000000
N            0.94220000000000       -2.17970000000000       -0.32860000000000
C            0.12290000000000       -1.13140000000000       -0.10850000000000
C            0.82680000000000        0.02100000000000       -0.03340000000000
C            0.17640000000000        1.23210000000000        0.16280000000000
O            0.83070000000000        2.30980000000000        0.21200000000000
N           -1.19410000000000        1.22160000000000        0.29150000000000
C           -1.89560000000000        0.03160000000000        0.18110000000000
O           -3.15820000000000        0.04070000000000        0.23340000000000
N           -1.23240000000000       -1.16450000000000        0.00710000000000
C           -1.96780000000000       -2.42820000000000       -0.13450000000000
C           -1.92340000000000        2.48920000000000        0.46330000000000
H            4.21460000000000        0.10900000000000       -0.34870000000000
H            3.14930000000000        1.38690000000000       -1.04900000000000
H            3.30900000000000        1.21690000000000        0.74980000000000
H            3.08170000000000       -2.15660000000000       -0.54540000000000
H           -1.32860000000000       -3.29890000000000        0.12490000000000
H           -2.84180000000000       -2.45190000000000        0.55100000000000
H           -2.32080000000000       -2.53760000000000       -1.18150000000000
H           -2.83900000000000        2.34400000000000        1.07560000000000
H           -2.20900000000000        2.89180000000000       -0.53120000000000
H           -1.30610000000000        3.24260000000000        0.99770000000000
24
 energy: -42.171907520498 gnorm: 0.063928517001 xtb: 6.6.0 (conda-forge)
C            3.26215008449076        0.64665516046102       -0.21447089923930
N            2.14274795796292       -0.26616885121693       -0.20332677540357
C            2.16923105928667       -1.60364344459014       -0.37693038586718
N            0.96220611611789       -2.17245761576264       -0.32653185591349
C            0.12205378476082       -1.13543372808243       -0.11039467740442
C            0.82957576475685        0.04382945636562       -0.03110130094622
C            0.18019323101567        1.28247095667561        0.16942586260205
O            0.79214685696983        2.36140685335228        0.22682778415040
N           -1.19614962852763        1.21695313121524        0.29087981331972
C           -1.90941055124575        0.02884715115457        0.18070819156208
O           -3.14105551641429        0.03794185004232        0.24356934498453
N           -1.23780757825807       -1.16159619026803        0.00833883806185
C           -1.96967958032366       -2.41189149610649       -0.13318231626576
C           -1.92812195048328        2.46652431203873        0.46041831644060
H            4.19205097099538        0.08867226913207       -0.34939730790117
H            3.14279913762898        1.36893227136612       -1.02837111978233
H            3.29687979104152        1.20150255673958        0.72835237826911
H            3.07089365669489       -2.16151903802005       -0.54220736875325
H           -1.30475530593750       -3.24359027658411        0.11930353128686
H           -2.83311223394403       -2.41343775658017        0.53928686480575
H           -2.31963236111859       -2.52729467302670       -1.16412408635748
H           -2.82970995495096        2.29299975083964        1.05531213920801
H           -2.20924248689753        2.87170874202744       -0.51701582471097
H           -1.28415126362089        3.18868860882744        0.97453085385419
24
 energy: -42.175577412336 gnorm: 0.015403441221 xtb: 6.6.0 (conda-forge)
C            3.26273126093000        0.63153856119106       -0.21547537164039
N            2.15030667925733       -0.27601456275230       -0.20664711984554
C            2.16366300191571       -1.60872417868289       -0.37478071897740
N            0.96908381385086       -2.16206206816394       -0.32622063904283
C            0.12253222920346       -1.12951082395216       -0.11416295682590
C            0.83214309190824        0.06337099170763       -0.03223695834063
C            0.19206854328343        1.32320922961299        0.16970798399392
O            0.76434579400190        2.40477236534389        0.23852651200177
N           -1.18955224660351        1.20823615461326        0.28426211676674
C           -1.92116702850806        0.02825624585755        0.17945835157656
O           -3.13490285243111        0.04037379784234        0.25163163600553
N           -1.23640659760670       -1.15235911895516        0.00695886854786
C           -1.96580287426699       -2.39664221549589       -0.13178787790136
C           -1.93277597305894        2.44343242298705        0.45843667055685
H            4.18108745248804        0.07021400711898       -0.34956334150214
H            3.14407453214978        1.35391772851555       -1.02199326106300
H            3.29376998509823        1.18569513295223        0.72129124245782
H            3.05990499451890       -2.17067332887209       -0.53644733042204
H           -1.28780946259678       -3.20680592925206        0.11847842690499
H           -2.82278177814110       -2.38295924640255        0.53629510064536
H           -2.31865437752604       -2.51668056798624       -1.15519303238654
H           -2.82485689908946        2.24633209774759        1.04510611588508
H           -2.22008859069825        2.85146090878933       -0.50966328486578
H           -1.28081269807895        3.15172239623582        0.96391886747106
24
 energy: -42.175964432762 gnorm: 0.007718112387 xtb: 6.6.0 (conda-forge)
C            3.26964049693174        0.62437493064763       -0.21471935458322
N            2.15340704018430       -0.27811049975359       -0.20923411422934
C            2.16025298712232       -1.61070120211374       -0.37405589548975
N            0.96335822987932       -2.15761471841311       -0.32649631126501
C            0.12221478392594       -1.12106630576446       -0.12017434208899
C            0.83437400644041        0.07148906759828       -0.03828774001773
C            0.19863178504479        1.33621896356979        0.16321263032064
O            0.75560060866530        2.42272287550538        0.23954646126909
N           -1.18493730069612        1.20614647741939        0.27488487294870
C           -1.92382998424036        0.03113564826851        0.17412741014688
O           -3.13811816902155        0.04433697343680        0.25716840212284
N           -1.23443120042899       -1.14486199375088        0.00089775639120
C           -1.96253567446896       -2.39107331300635       -0.13010075623658
C           -1.93898583838276        2.43497932649028        0.45990498558268
H            4.18671297538348        0.05761438136542       -0.34734027617246
H            3.15668427923777        1.34751059429692       -1.02268196848243
H            3.30164530943558        1.17698587036713        0.72402442534684
H            3.05586303284514       -2.17718113226330       -0.53038852393396
H           -1.28121023729960       -3.19817183637252        0.12195590237770
H           -2.81832459569251       -2.37156284432327        0.54102920293344
H           -2.31907773647767       -2.51509752268176       -1.15302216169015
H           -2.82770826989406        2.22094518141428        1.04815100462236
H           -2.23653936387730        2.84446887561335       -0.50591876265240
H           -1.29258716461623        3.14661220244983        0.96741715277967
24
 energy: -42.176094101360 gnorm: 0.003374826066 xtb: 6.6.0 (conda-forge)
C            3.27790631697182        0.61738932316085       -0.21353759454545
N            2.15537146365544       -0.27849722354350       -0.21218917596421
C            2.15692623705161       -1.61138105907621       -0.37293178485666
N            0.95595173247799       -2.15277458889610       -0.32803538458783
C            0.12134241239470       -1.11137319348801       -0.12672670250060
C            0.83613024718544        0.07892224710467       -0.04567559203633
C            0.20308169497766        1.34498486392163        0.15658451654354
O            0.74739965134289        2.43592190937178        0.23684888446440
N           -1.18235179264417        1.20592993594280        0.26557916382388
C           -1.92489181085669        0.03395667736165        0.17191240933610
O           -3.13978989567022        0.04741792099934        0.25958082346693
N           -1.23322433580789       -1.13834266566572       -0.00622968277111
C           -1.95889789471925       -2.38812082487637       -0.12867091341780
C           -1.94586188022481        2.43001559370651        0.46204443525935
H            4.19331725475625        0.04469108428041       -0.34423274066190
H            3.17389470714967        1.34195308687543       -1.02253766020511
H            3.31284247816569        1.16757382255125        0.72742050302700
H            3.05177695510595       -2.18201212570470       -0.52387823550213
H           -1.27648389780518       -3.19450688897958        0.12472777173702
H           -2.81287873021845       -2.36590508936168        0.54606774174420
H           -2.31962781943563       -2.51685202475863       -1.15046272469213
H           -2.82967050160031        2.20287990334136        1.05423576359353
H           -2.25555748292110        2.84023520597667       -0.50069562841161
H           -1.30660510933144        3.14799410975614        0.97070180715694
24
 energy: -42.176114476886 gnorm: 0.002270800918 xtb: 6.6.0 (conda-forge)
C            3.28109639554969        0.61466180930379       -0.21242285453635
N            2.15535245727851       -0.27761675152145       -0.21341461937403
C            2.15579287442874       -1.61059028337936       -0.37257428129724
N            0.95369024830739       -2.15065783824084       -0.32838517234969
C            0.12072106367214       -1.10751496081406       -0.12978048141785
C            0.83621558544434        0.08175552381103       -0.04966855294335
C            0.20280069997406        1.34678049976649        0.15335629304017
O            0.74405953865048        2.43882002992234        0.23460172538667
N           -1.18347147353005        1.20698328801110        0.26167603098059
C           -1.92562219351680        0.03502989472524        0.16997042177446
O           -3.14045464993469        0.04730650040540        0.26049844428258
N           -1.23363554576576       -1.13672704999329       -0.01047022850352
C           -1.95734271458378       -2.38825301459741       -0.12815226203004
C           -1.94842384715872        2.42981244400754        0.46333072601406
H            4.19475214729824        0.03872319501022       -0.34260528444717
H            3.18126737096310        1.34015954442900       -1.02108546478162
H            3.31759334845542        1.16335805147921        0.72939976046679
H            3.05019655569818       -2.18226169656148       -0.52165204759770
H           -1.27366819370561       -3.19348632950049        0.12644780997447
H           -2.81027214618815       -2.36583530309669        0.54801114322494
H           -2.31915135104477       -2.51992761429022       -1.14913698310596
H           -2.82914280855995        2.20024994102200        1.05877879699548
H           -2.26278175291884        2.84010856864762       -0.49770616472569
H           -1.30947160881320        3.14922155145430        0.97088324497000
24
 energy: -42.176128072605 gnorm: 0.001314077305 xtb: 6.6.0 (conda-forge)
C            3.28438396644204        0.61165876002153       -0.21081966281975
N            2.15495177200509       -0.27615581124865       -0.21497282131240
C            2.15467792233592       -1.60933527955961       -0.37179197944860
N            0.95190651886001       -2.14828811919755       -0.32935127790978
C            0.11984724515642       -1.10363383506723       -0.13362706897111
C            0.83595459826123        0.08488784226502       -0.05495772807344
C            0.20130395205520        1.34828310135301        0.14935566143261
O            0.74048431232516        2.44117925418760        0.23159869976891
N           -1.18589351256656        1.20865333920479        0.25746675511705
C           -1.92678044696021        0.03606956442450        0.16814094173281
O           -3.14130916111748        0.04662043620411        0.26189502067140
N           -1.23461142056174       -1.13542429419699       -0.01612233118183
C           -1.95553914791884       -2.38882935046618       -0.12791613614486
C           -1.95105709720120        2.43031260722192        0.46471822634431
H            4.19528592821225        0.03154300025013       -0.34080271386142
H            3.18936006592527        1.33897268251901       -1.01819740308779
H            3.32262405245033        1.15804071896359        0.73219114008349
H            3.04867129171441       -2.18188571963958       -0.51841753962076
H           -1.26953219889457       -3.19163848205093        0.12837391411128
H           -2.80697801608339       -2.36623033639611        0.54994867267870
H           -2.31861646432754       -2.52505560175532       -1.14761550426855
H           -2.82721662466163        2.19936314561290        1.06581178436570
H           -2.27192319555886        2.84063019493574       -0.49383725707402
H           -1.30989433989132        3.15036218241430        0.96882860746804
24
 energy: -42.176132782697 gnorm: 0.001078545538 xtb: 6.6.0 (conda-forge)
C            3.28584384377806        0.61014997905822       -0.20932442207411
N            2.15458117134595       -0.27517043531252       -0.21614475121262
C            2.15420079478607       -1.60861115478356       -0.37127049010795
N            0.95164566095497       -2.14732568873322       -0.32990339075662
C            0.11919767214676       -1.10218165046777       -0.13665485323875
C            0.83556389775635        0.08645539010967       -0.05900564802879
C            0.19980533919923        1.34900380046873        0.14640361194338
O            0.73916235429848        2.44191004198478        0.22952970160893
N           -1.18768680494321        1.20978106379206        0.25483423023283
C           -1.92762434499396        0.03664537750695        0.16660626392307
O           -3.14181552840957        0.04612290468086        0.26385680000377
N           -1.23544576145490       -1.13479868096907       -0.02055606296341
C           -1.95454566578764       -2.38920585797262       -0.12796364795239
C           -1.95217190768021        2.43078021849801        0.46557543738036
H            4.19486999446199        0.02777558679177       -0.34015650949116
H            3.19308109734129        1.33959051435797       -1.01482891418395
H            3.32505609745559        1.15419226280010        0.73493415014637
H            3.04823065934771       -2.18149712949187       -0.51571199369831
H           -1.26672126095765       -3.18985030747015        0.12965336407117
H           -2.80518163641391       -2.36603429488990        0.55072326467615
H           -2.31844961383504       -2.52921906525638       -1.14668152365564
H           -2.82456060338727        2.20006635462929        1.07217296530045
H           -2.27918020489446        2.84037469957713       -0.49104150496296
H           -1.30775525011466        3.15114607109154        0.96485392304016
24
 energy: -42.176135790869 gnorm: 0.000670404565 xtb: 6.6.0 (conda-forge)
C            3.28578780555615        0.61006469855987       -0.20831906537080
N            2.15451559461271       -0.27505296015195       -0.21668376844018
C            2.15426766082024       -1.60871190770449       -0.37077784437317
N            0.95193448082711       -2.14745554064684       -0.33049440191251
C            0.11896811008093       -1.10248875720602       -0.13830266124356
C            0.83534612324634        0.08653320669822       -0.06096048635982
C            0.19940152795742        1.34925618786818        0.14494128969397
O            0.73968478738833        2.44177967339007        0.22834984707454
N           -1.18781529706682        1.20996713475905        0.25377007805294
C           -1.92773439670959        0.03674948914667        0.16626343397551
O           -3.14173606105564        0.04627081095930        0.26505518240766
N           -1.23568302561041       -1.13445417121511       -0.02267064056643
C           -1.95449602704088       -2.38905374753596       -0.12822892369658
C           -1.95210729917170        2.43066203763226        0.46577850160202
H            4.19457256629714        0.02777854516773       -0.34064005476986
H            3.19282020001055        1.34136756914326       -1.01210951898051
H            3.32527370532411        1.15208106844576        0.73713716131781
H            3.04858997667518       -2.18159004968094       -0.51387528630490
H           -1.26626432404244       -3.18892983589162        0.13020785804466
H           -2.80502342400537       -2.36504695782924        0.55058294266932
H           -2.31873874083038       -2.53079779111020       -1.14662078344057
H           -2.82161237055348        2.20065764351373        1.07701916994544
H           -2.28439210070447        2.83842024908371       -0.48990203408891
H           -1.30545947200508        3.15209340460453        0.96038000476393
