26
 energy: -50.283910482781 gnorm: 0.138034262940 xtb: 6.6.0 (conda-forge)
C           -4.16300000000000        0.36130000000000        0.00910000000000
C           -3.76310000000000        1.62910000000000        0.43040000000000
C           -2.40550000000000        1.92600000000000        0.56660000000000
C           -1.42980000000000        0.95210000000000        0.28090000000000
C           -1.83510000000000       -0.32970000000000       -0.14520000000000
C           -3.20690000000000       -0.61490000000000       -0.27790000000000
C           -0.81850000000000       -1.36100000000000       -0.44820000000000
O           -1.18260000000000       -2.50780000000000       -0.82940000000000
C            0.62460000000000       -1.05210000000000       -0.30570000000000
C            1.04160000000000        0.23070000000000        0.12100000000000
C            0.01220000000000        1.26480000000000        0.42460000000000
O            0.35840000000000        2.41610000000000        0.80670000000000
C            2.42680000000000        0.50230000000000        0.24970000000000
C            3.37030000000000       -0.49760000000000       -0.04530000000000
C            2.94350000000000       -1.75950000000000       -0.46560000000000
C            1.58490000000000       -2.03580000000000       -0.59500000000000
O            4.73320000000000       -0.23130000000000        0.08110000000000
O            2.86230000000000        1.76140000000000        0.66930000000000
H           -5.21610000000000        0.13410000000000       -0.09550000000000
H           -4.50650000000000        2.38390000000000        0.65230000000000
H           -2.12030000000000        2.91750000000000        0.89530000000000
H           -3.54130000000000       -1.59200000000000       -0.60340000000000
H            3.66780000000000       -2.53130000000000       -0.69340000000000
H            1.28610000000000       -3.02360000000000       -0.92300000000000
H            5.43370000000000       -0.93400000000000       -0.12520000000000
H            3.84330000000000        1.99130000000000        0.77260000000000
26
 energy: -50.303016976653 gnorm: 0.056055601635 xtb: 6.6.0 (conda-forge)
C           -4.13386501875948        0.35623010005029        0.00831876442367
C           -3.73497895119548        1.61784633985215        0.42766050678227
C           -2.38504339531406        1.91109675105645        0.56237527046048
C           -1.41208220358945        0.94633060543425        0.27954242528121
C           -1.81749435650636       -0.33029679236860       -0.14484724150893
C           -3.18192402584163       -0.61202935098378       -0.27624757755221
C           -0.81191304396790       -1.36769553270623       -0.45016500163421
O           -1.16354551099956       -2.48776167794422       -0.82236488287285
C            0.62329989110467       -1.03789146037743       -0.30115419757220
C            1.03950544173785        0.24287044723138        0.12487538378026
C            0.02438633390922        1.28222947535261        0.43055673420258
O            0.34875869584250        2.40646063800283        0.80330581597445
C            2.42019566436423        0.51233046800396        0.25276911808019
C            3.36089016849434       -0.49283272363920       -0.04404197092476
C            2.92934823866068       -1.74673603256931       -0.46186438517505
C            1.57602493486980       -2.01689032598547       -0.58919082809560
O            4.69772694207678       -0.19561703724957        0.09156420656150
O            2.82952203768331        1.74502173619123        0.66304335920425
H           -5.18661249082688        0.12936784202989       -0.09614686923338
H           -4.47819604674229        2.37227873986125        0.64935313753149
H           -2.08923514866462        2.89750806281883        0.88977064789427
H           -3.50394907938385       -1.59090706470322       -0.60195254255736
H            3.65502722877731       -2.51645653374823       -0.68899570016742
H            1.26326027322535       -2.99857965062893       -0.91557285968160
H            5.33032593841263       -0.91769840294958       -0.12299289349997
H            3.80056748263292        1.89182137996867        0.73920158029891
26
 energy: -50.309006673640 gnorm: 0.017053020755 xtb: 6.6.0 (conda-forge)
C           -4.10883959367345        0.35097527414255        0.00736615871029
C           -3.70997037947771        1.61067253982183        0.42607814730486
C           -2.36429259629862        1.90064877565174        0.55960507671620
C           -1.39566068833924        0.94040927309750        0.27811116500813
C           -1.80016360857910       -0.33195091750826       -0.14485965046033
C           -3.15869647224563       -0.61248944428154       -0.27570066277011
C           -0.80969336582984       -1.38429652808538       -0.45546394962423
O           -1.15136252093432       -2.49021237451794       -0.82279284869462
C            0.61859892082576       -1.02730872209262       -0.29787456384142
C            1.02983344409735        0.25134842789449        0.12732186451776
C            0.03680662302541        1.30660172160740        0.43881420825331
O            0.34789748925629        2.41668339391446        0.80657537335860
C            2.40407877662783        0.52301705711705        0.25574464039152
C            3.34468547048898       -0.48603570678047       -0.04233627461302
C            2.91709618007302       -1.73433863803448       -0.45821510318122
C            1.56644144747970       -2.00139589562340       -0.58446845570872
O            4.65980264325507       -0.15466234733325        0.10365366328833
O            2.80505219116975        1.72956458378149        0.65733391043846
H           -5.16031890731902        0.12333290521434       -0.09731217017659
H           -4.45115337840038        2.36557086457406        0.64798827159242
H           -2.05056545305258        2.88143635713731        0.88571768587728
H           -3.46235246180363       -1.59624002187668       -0.60245943021834
H            3.64712527981628       -2.50039354442027       -0.68404973475486
H            1.23739950250191       -2.97678169655276       -0.90928902426882
H            5.23541782853425       -0.89385017363566       -0.11809697677989
H            3.77283362880193        1.78969483678846        0.70540867963504
26
 energy: -50.309598196574 gnorm: 0.011135258865 xtb: 6.6.0 (conda-forge)
C           -4.10191160052152        0.34767547749008        0.00650899007247
C           -3.70402341764457        1.60849520528230        0.42556557908326
C           -2.35894412444527        1.89897745577965        0.55922806366647
C           -1.39210563598780        0.93876466413204        0.27768217262732
C           -1.79426831707932       -0.33264547127813       -0.14491280197432
C           -3.15118267696814       -0.61505974112216       -0.27631884465790
C           -0.80946784718908       -1.38894657400873       -0.45695447569362
O           -1.14896449024841       -2.49770989467360       -0.82514826807647
C            0.61496781828079       -1.02352829742041       -0.29676208672988
C            1.02113006938147        0.25512346005507        0.12828500686880
C            0.03676845665846        1.31450040305470        0.44133204887772
O            0.34656720773742        2.42764100020535        0.81008361033316
C            2.39162429888813        0.52821802069078        0.25706694381547
C            3.33218651045122       -0.48077199469278       -0.04100366117969
C            2.91249707938288       -1.72936861306692       -0.45674588512998
C            1.56182546276486       -1.99675426502103       -0.58310711213971
O            4.64517853646690       -0.13910344591313        0.10823615620651
O            2.81094475408652        1.72898606664764        0.65732838143187
H           -5.15211625366764        0.11833150022328       -0.09867571253243
H           -4.44395135017870        2.36345124965109        0.64751386229782
H           -2.03534168191508        2.87689037832244        0.88469275079385
H           -3.44410210252266       -1.60192519534365       -0.60376089009361
H            3.64515684929476       -2.49299193322296       -0.68171698489068
H            1.22560069931751       -2.96950171926531       -0.90727564632939
H            5.20816865819352       -0.88747344219675       -0.11684424999464
H            3.78376309746379        1.74872570569111        0.69250305334764
26
 energy: -50.309729679677 gnorm: 0.004812388135 xtb: 6.6.0 (conda-forge)
C           -4.10075356210115        0.34605618782443        0.00602251761799
C           -3.70430111486362        1.60781252736605        0.42533128372964
C           -2.35947292856816        1.89952302544475        0.55937523438217
C           -1.39202815976121        0.93931919849737        0.27785846090086
C           -1.79211154512099       -0.33198845517335       -0.14463946605005
C           -3.14912159626285       -0.61599478326929       -0.27655662905574
C           -0.80873965686512       -1.38806072417591       -0.45665533330786
O           -1.14809416109326       -2.49827459187770       -0.82530443292672
C            0.61412624780324       -1.02175674500718       -0.29621395133550
C            1.01696733713016        0.25746393107441        0.12891708520857
C            0.03491061937104        1.31622854208606        0.44186498259009
O            0.34631401384623        2.43028822595579        0.81093067721526
C            2.38568456308228        0.53005862615150        0.25747841795471
C            3.32627416980039       -0.47917368221407       -0.04066831274695
C            2.91239872620102       -1.72858375571221       -0.45649600679154
C            1.56081892713686       -1.99525991005529       -0.58264675747461
O            4.64001456815876       -0.13251978946879        0.11019851247881
O            2.81951500184048        1.72895479736829        0.65757702085723
H           -5.15018506366168        0.11513987961893       -0.09964449085340
H           -4.44412798154679        2.36236710942161        0.64716362347456
H           -2.02968139565304        2.87543024467216        0.88438211272090
H           -3.43454490628906       -1.60486372565458       -0.60443171095325
H            3.64598040666713       -2.49105494251590       -0.68106987857566
H            1.21885425043054       -2.96603296403332       -0.90634685171177
H            5.20045782570281       -0.88297050708909       -0.11561695345669
H            3.79084541461598        1.72789228076533        0.68599084610897
26
 energy: -50.309756787771 gnorm: 0.001571827079 xtb: 6.6.0 (conda-forge)
C           -4.10147814233718        0.34507353960775        0.00568431195912
C           -3.70630957808726        1.60732178190820        0.42511677574578
C           -2.36194954219163        1.90044025266760        0.55960660617979
C           -1.39310830548431        0.94072606072352        0.27828156927958
C           -1.79191393149073       -0.33099600881308       -0.14431517803377
C           -3.14926489836236       -0.61617157256774       -0.27662321653098
C           -0.80800286154414       -1.38588699547179       -0.45592458027905
O           -1.14777982501891       -2.49627609350647       -0.82465399894066
C            0.61479874378504       -1.02071426427498       -0.29585693371352
C            1.01651758392365        0.25927494989011        0.12949065504016
C            0.03337065252520        1.31670925680721        0.44194229346814
O            0.34610517269247        2.43064660643244        0.81104591183448
C            2.38498636551755        0.53069946096900        0.25767477706767
C            3.32517559314893       -0.47924947483317       -0.04072442693499
C            2.91326480724816       -1.72905131877437       -0.45662296284388
C            1.56115886927342       -1.99472561913425       -0.58246542019311
O            4.63977418881326       -0.13203580421990        0.11034508566640
O            2.82530937749531        1.72879222429643        0.65770285562530
H           -5.15068086718798        0.11313690370793       -0.10029937943278
H           -4.44691374314546        2.36119782785315        0.64670186523468
H           -2.03069238172354        2.87573416134853        0.88444607563822
H           -3.43156685283236       -1.60575062807278       -0.60463062694921
H            3.64649065227376       -2.49153786258285       -0.68120965299608
H            1.21637704027108       -2.96457196002183       -0.90594474111680
H            5.20154344458512       -0.88157096158716       -0.11513491351288
H            3.79478843785292        1.71878553764847        0.68316724873839
26
 energy: -50.309762010835 gnorm: 0.000856934590 xtb: 6.6.0 (conda-forge)
C           -4.10237214774427        0.34397670624867        0.00530633806676
C           -3.70837293598253        1.60659760267743        0.42481545865272
C           -2.36459005380761        1.90126150453050        0.55977361581676
C           -1.39421886376963        0.94234960632275        0.27876729982066
C           -1.79215769614828       -0.32988196663186       -0.14396311539478
C           -3.14959453859592       -0.61629504897374       -0.27666445421900
C           -0.80737405062458       -1.38375730628224       -0.45523196200441
O           -1.14747835911525       -2.49399206678462       -0.82390512012452
C            0.61571852747253       -1.01958083041227       -0.29546270313896
C            1.01741178053219        0.26107412321384        0.13009693586758
C            0.03232564492090        1.31756160172896        0.44224157401104
O            0.34584591636148        2.43120447587298        0.81121040105333
C            2.38615324097393        0.53129784917453        0.25788974081540
C            3.32554492920476       -0.47969337282007       -0.04086158952504
C            2.91368234006535       -1.72952918676443       -0.45676379667790
C            1.56133999408680       -1.99415535948363       -0.58226944396592
O            4.64063250059257       -0.13347597807240        0.10989959871611
O            2.82992266685830        1.72863441679850        0.65779011691691
H           -5.15154718586607        0.11125255683391       -0.10093564523708
H           -4.45025815504414        2.35952945278449        0.64606507404913
H           -2.03439221008302        2.87679386112039        0.88467639436745
H           -3.43067551597769       -1.60608079690390       -0.60470916966031
H            3.64613309683237       -2.49249991311509       -0.68153666635434
H            1.21521896960695       -2.96356514135655       -0.90565102295882
H            5.20462517761282       -0.88156851232061       -0.11504370048543
H            3.79847692763802        1.71254172261446        0.68126584159266
26
 energy: -50.309762756920 gnorm: 0.000193803960 xtb: 6.6.0 (conda-forge)
C           -4.10220208624113        0.34393964222509        0.00529654053383
C           -3.70804007025456        1.60651953216998        0.42480713019945
C           -2.36420224349495        1.90112065712692        0.55976642488592
C           -1.39394896933035        0.94227826386049        0.27875886867760
C           -1.79211758168535       -0.32985840954830       -0.14395421196181
C           -3.14935971009944       -0.61631667916426       -0.27667501585867
C           -0.80748614201937       -1.38402454260731       -0.45530254806985
O           -1.14746736740972       -2.49423542762849       -0.82399036929226
C            0.61557584930981       -1.01955727174878       -0.29545971025544
C            1.01762675240722        0.26089144229463        0.13004768804615
C            0.03270678384220        1.31782136821532        0.44225360837321
O            0.34600215914766        2.43144290316683        0.81130331610805
C            2.38641094866549        0.53121691546100        0.25789364167776
C            3.32571922582650       -0.47980845199828       -0.04088672389297
C            2.91330492166293       -1.72948794855643       -0.45676349928718
C            1.56103596526971       -1.99415036756566       -0.58228520542167
O            4.64054772349464       -0.13365208937459        0.10984582532051
O            2.82933401659692        1.72859005471544        0.65776293406201
H           -5.15140318742228        0.11133920722715       -0.10089589987193
H           -4.45002280593518        2.35936975057072        0.64601764530999
H           -2.03490835048300        2.87701417275954        0.88473139726422
H           -3.43099352048037       -1.60598910506526       -0.60468826289059
H            3.64575186211128       -2.49253604686710       -0.68155360353706
H            1.21545536971515       -2.96372698193369       -0.90569871379103
H            5.20461998567499       -0.88174479023496       -0.11510362639840
H            3.79806047113118        1.71354420250000        0.68157237007017
