24
 energy: -4.347556581768 gnorm: 0.118574355989 xtb: 6.6.0 (conda-forge)
C            1.19020000000000       -1.09980000000000        1.06850000000000
C            2.40590000000000       -0.52820000000000        1.45620000000000
C            2.93050000000000        0.55800000000000        0.74820000000000
C            2.23190000000000        1.07350000000000       -0.35190000000000
C            1.01630000000000        0.50340000000000       -0.74190000000000
C            0.49020000000000       -0.59290000000000       -0.03860000000000
C           -0.83740000000000       -1.18930000000000       -0.43500000000000
C           -1.98980000000000       -0.63620000000000        0.42300000000000
C           -2.18420000000000        0.84200000000000        0.19730000000000
O           -2.57520000000000        1.27130000000000       -0.92190000000000
O           -1.90750000000000        1.73890000000000        1.22430000000000
N           -3.22270000000000       -1.37230000000000        0.13440000000000
O            4.14240000000000        1.11780000000000        1.14600000000000
H            0.79280000000000       -1.93530000000000        1.63150000000000
H            2.93940000000000       -0.92770000000000        2.30930000000000
H            2.62820000000000        1.91690000000000       -0.90300000000000
H            0.48400000000000        0.91830000000000       -1.58880000000000
H           -1.03940000000000       -1.00030000000000       -1.51270000000000
H           -0.78830000000000       -2.29350000000000       -0.30950000000000
H           -1.73730000000000       -0.80080000000000        1.49450000000000
H           -2.02070000000000        2.73620000000000        1.08760000000000
H           -3.98300000000000       -1.01080000000000        0.75590000000000
H           -3.51470000000000       -1.19500000000000       -0.85480000000000
H            4.54830000000000        1.90550000000000        0.65440000000000
24
 energy: -4.358917855770 gnorm: 0.063577332426 xtb: 6.6.0 (conda-forge)
C            1.19462411802240       -1.08999967003921        1.06224866858308
C            2.39893448997145       -0.52698651582066        1.44770971308179
C            2.92718246719597        0.55663979495291        0.74623939589060
C            2.22622848459965        1.06761985943772       -0.34832417732260
C            1.02139258890951        0.50182066974185       -0.73100930789098
C            0.49718258206809       -0.58662486039121       -0.03457127171314
C           -0.82901617357294       -1.17823800386216       -0.42505375663368
C           -1.98747051133064       -0.63155986887512        0.42125759133118
C           -2.17889712597871        0.84389302750086        0.19682100939028
O           -2.55881047828560        1.25651639185145       -0.89639610628842
O           -1.90705833991800        1.71702572481325        1.22187512838683
N           -3.22199166574453       -1.35686195388706        0.13427641924130
O            4.13673414695794        1.11040327137746        1.14599291161252
H            0.79550656960130       -1.92188834143098        1.62007306599802
H            2.93184993451090       -0.92313472225966        2.29620125619779
H            2.62146000982087        1.90715419721115       -0.89561115703892
H            0.48560545770478        0.91398711952285       -1.57115130295281
H           -1.03101276816809       -0.98799152711315       -1.48947177383682
H           -0.78505023301543       -2.27220880549454       -0.31135655964928
H           -1.74151007438103       -0.79063789623510        1.48656117367003
H           -2.03081305329689        2.68552658630118        1.05248511264392
H           -3.96744179076211       -0.99980302742252        0.73682968236421
H           -3.50230252320757       -1.17940884611072       -0.83282936732161
H            4.50457388829865        1.88445739623142        0.64020365225673
24
 energy: -4.364573628093 gnorm: 0.032857003200 xtb: 6.6.0 (conda-forge)
C            1.20013317772309       -1.08041492296452        1.05634476854909
C            2.39361127242107       -0.52579717712065        1.44015432829148
C            2.92871077706337        0.55674981452363        0.74654115247955
C            2.22254357759078        1.06323886221346       -0.34300384434828
C            1.02757617429435        0.50151617789491       -0.71850490615498
C            0.50373885334962       -0.58069956510708       -0.03043686272370
C           -0.82081135466597       -1.16755927430809       -0.41402892572392
C           -1.98367872863474       -0.62754293934624        0.42172203922948
C           -2.17083001039945        0.84965435962956        0.19849145340364
O           -2.54032896456384        1.24213853927755       -0.87265090056118
O           -1.90252655588135        1.68465421985892        1.22929620528183
N           -3.22162092613195       -1.33783675454054        0.13569250633674
O            4.13564235085884        1.10006130461376        1.15146014408572
H            0.79617685028964       -1.90984653048422        1.60859400267601
H            2.92888061253182       -0.91698417774067        2.28504856773977
H            2.61885575458849        1.90057312438866       -0.88584735775014
H            0.48407333159582        0.91150403553017       -1.55122875480342
H           -1.02457581868444       -0.97204609248432       -1.46697960769545
H           -0.78236077187265       -2.25403082195883       -0.31608273447776
H           -1.74422247109528       -0.78104797128859        1.48277285882562
H           -2.04638444519024        2.61994059225125        0.99793036472740
H           -3.95678190892458       -0.98248823590971        0.71821048690308
H           -3.48714731679146       -1.15556746028582       -0.81342729807213
H            4.44122654052907        1.86153089335740        0.61293231378157
24
 energy: -4.365851983317 gnorm: 0.020505474743 xtb: 6.6.0 (conda-forge)
C            1.20338392036617       -1.08158089082312        1.05656363093508
C            2.39656949531751       -0.52756955517369        1.43915047176459
C            2.93220323041477        0.55691046609637        0.74796109260307
C            2.22099691943071        1.06443789693505       -0.33827479764501
C            1.02621243952610        0.50357934432327       -0.71152870516498
C            0.50392340064543       -0.58086648770128       -0.02699946548546
C           -0.81950426901932       -1.16688762058787       -0.40883592747330
C           -1.98076017597824       -0.62933311406990        0.42741852868512
C           -2.16456357918150        0.84965864176315        0.20080399717821
O           -2.52781534546046        1.23497943487853       -0.87787243297949
O           -1.90074548947290        1.67178856485890        1.23660124396646
N           -3.22159828220073       -1.32937507178077        0.13650034827076
O            4.13823861175846        1.09646286000139        1.15224617165330
H            0.79763010811351       -1.91179192056947        1.60664836506788
H            2.93622066230682       -0.91700517605898        2.28227338540816
H            2.61754746702165        1.90342743570648       -0.87888406691343
H            0.47634455742641        0.91519922459705       -1.53963297835668
H           -1.02488142084216       -0.96320969628259       -1.46035071622378
H           -0.78162104531194       -2.25417521773899       -0.31980046106209
H           -1.74493415845055       -0.78192901137860        1.48952603574932
H           -2.05520608430081        2.59598413560103        0.96845194743301
H           -3.96023747281199       -0.96698134799681        0.71292421087708
H           -3.47742633436526       -1.13837822671172       -0.81538922290054
H            4.40992284506827        1.85635533211254        0.59349934461274
24
 energy: -4.366390360323 gnorm: 0.004542756229 xtb: 6.6.0 (conda-forge)
C            1.20741015719377       -1.08653082208908        1.05896727875853
C            2.40334990560741       -0.53025279081505        1.43909565002310
C            2.93652604980631        0.55774195577015        0.74891955445539
C            2.21832148558131        1.06805837005764       -0.33311128752337
C            1.02091076938405        0.50661867350090       -0.70440524417340
C            0.50209841521211       -0.58361431773699       -0.02245813308908
C           -0.82038946425469       -1.17056322886211       -0.40382767350801
C           -1.97862748494334       -0.63279001964778        0.43486367394472
C           -2.15658118580097        0.84841363519805        0.20287210442218
O           -2.50718724842822        1.22826576694218       -0.89056045331171
O           -1.90196872375047        1.66378141513185        1.24508784189752
N           -3.22292334798287       -1.32148672058901        0.13594287489659
O            4.14273933307857        1.09498949049090        1.15032938709838
H            0.80176355371763       -1.91914238385141        1.60725993533652
H            2.94981645053818       -0.91816856180111        2.27994437946198
H            2.61352201916606        1.91053805790173       -0.87157489677557
H            0.46288070989082        0.92137494878688       -1.52673653125749
H           -1.02691157755819       -0.95804715713155       -1.45643296657798
H           -0.78190302233679       -2.26059373124253       -0.32145317615241
H           -1.74703209270622       -0.78600461834982        1.49958257018276
H           -2.06366381362348        2.57904266796186        0.94261474563859
H           -3.96793610999848       -0.94671806332242        0.70660961878143
H           -3.46703278418051       -1.11959364272647       -0.82317481828921
H            4.38271800638791        1.85438107642317        0.57464556576058
24
 energy: -4.366418867157 gnorm: 0.002511814693 xtb: 6.6.0 (conda-forge)
C            1.20879311217862       -1.08883005505317        1.05990760455908
C            2.40554516045959       -0.53097185935683        1.43874979492546
C            2.93636300954755        0.55821215956404        0.74829129981837
C            2.21600124380570        1.06941971401525       -0.33212424441850
C            1.01790642174389        0.50691184102742       -0.70274140134300
C            0.50142888911674       -0.58551956636428       -0.02105335409671
C           -0.82091123151087       -1.17363910506491       -0.40291600264207
C           -1.97888508238451       -0.63332155947181        0.43502395436900
C           -2.15378654600012        0.84816839127789        0.20194652158439
O           -2.49898584791134        1.22831300512135       -0.89367723272302
O           -1.90356528982012        1.66513384204657        1.24573891694991
N           -3.22417891648404       -1.31969035487929        0.13438630971660
O            4.14327540828645        1.09614312983129        1.14826629579418
H            0.80481028360746       -1.92261259204799        1.60793204303910
H            2.95418091093213       -0.91876796442663        2.27852139552124
H            2.60931000463951        1.91332701321267       -0.87012622724020
H            0.45764001311059        0.92268091664362       -1.52314158745790
H           -1.02665564007195       -0.96200487125001       -1.45638888902724
H           -0.78231214104815       -2.26394727919765       -0.31837288042566
H           -1.74841470700803       -0.78711787772471        1.50032906832507
H           -2.06373212346192        2.57991528756232        0.94272509865952
H           -3.96933942884061       -0.94109593061602        0.70366774804947
H           -3.46624198193620       -1.11674896971673       -0.82568722944465
H            4.38165447904953        1.85574268486760        0.57374299750760
24
 energy: -4.366454888457 gnorm: 0.002264285123 xtb: 6.6.0 (conda-forge)
C            1.21262072768902       -1.09438075512258        1.06108626052837
C            2.41020035957330       -0.53341970163354        1.43709611008819
C            2.93526067789337        0.55886046555189        0.74690353428642
C            2.20973145253505        1.07211214853913       -0.32916970200026
C            1.01104146206474        0.50729786505621       -0.69786058415810
C            0.50057224457402       -0.58994105443925       -0.01758899156009
C           -0.82140470886675       -1.18035545900549       -0.39996116404804
C           -1.97923337357955       -0.63392601503967        0.43511124935008
C           -2.14687070828168        0.84799112486577        0.19971255596686
O           -2.47803602525099        1.22852068123732       -0.90021646278156
O           -1.90780255405739        1.66789217396643        1.24658687859875
N           -3.22691205404374       -1.31463740872272        0.13076029543020
O            4.14355081090361        1.09856948453438        1.14340762023889
H            0.81268808783420       -1.93096980656648        1.60797854854926
H            2.96380606612671       -0.92135625359400        2.27377373893451
H            2.59806724777959        1.91959460903336       -0.86551752685660
H            0.44542293261936        0.92544368365771       -1.51338225261869
H           -1.02519082956209       -0.97208707891809       -1.45498252036109
H           -0.78307755053608       -2.27064230502316       -0.30978838316377
H           -1.75175691472394       -0.78871670619430        1.50132961538914
H           -2.06409263100098        2.58172846571608        0.94122655841632
H           -3.97144487086750       -0.92767087950877        0.69618629854122
H           -3.46422216203564       -1.11004238830123       -0.83052340399473
H            4.37698231321322        1.85983510991095        0.57083172722478
24
 energy: -4.366484548235 gnorm: 0.003321842676 xtb: 6.6.0 (conda-forge)
C            1.21698181294137       -1.10019977027716        1.06102314072110
C            2.41450446784901       -0.53662495207236        1.43456799678648
C            2.93368785862124        0.55919976046145        0.74560556313013
C            2.20291904630688        1.07456706628212       -0.32576665658551
C            1.00439766679044        0.50755331007985       -0.69236897357904
C            0.50025501337997       -0.59426106020895       -0.01424522111700
C           -0.82141460135646       -1.18650003434819       -0.39613947334196
C           -1.97935517940284       -0.63394498655765        0.43527228370007
C           -2.13974763335293        0.84821371991624        0.19742222806426
O           -2.45573119048456        1.22895146976436       -0.90678770806744
O           -1.91261033200682        1.67029127424769        1.24663259624340
N           -3.22936085539528       -1.30905442727183        0.12759016551941
O            4.14286581552497        1.10081716090095        1.13880071932160
H            0.82117897792670       -1.93973080763364        1.60637382755244
H            2.97287877278680       -0.92527722675688        2.26775124328196
H            2.58594238555648        1.92587266707335       -0.85995186069316
H            0.43343951332376        0.92804684356839       -1.50290907128351
H           -1.02336711531172       -0.98270063500611       -1.45245118433728
H           -0.78381877607473       -2.27636935309492       -0.30002439222244
H           -1.75516265522662       -0.78909934212233        1.50218851913820
H           -2.06436367626177        2.58350133082990        0.93798368881864
H           -3.97296350379227       -0.91444828489761        0.68891909300181
H           -3.46200919137488       -1.10383942108434       -0.83459734386739
H            4.37075337903308        1.86473569820761        0.56811081981533
24
 energy: -4.366532069747 gnorm: 0.003731623451 xtb: 6.6.0 (conda-forge)
C            1.22390152925066       -1.10906766307850        1.05933318791973
C            2.42052648830434       -0.54213468535883        1.42985244013846
C            2.93111373422684        0.55943660853827        0.74380539466518
C            2.19269795047775        1.07801966098784       -0.32048132438856
C            0.99508997894436        0.50784731028919       -0.68404746115901
C            0.50028157804740       -0.60043659462836       -0.00983403718032
C           -0.82111748538547       -1.19477871799871       -0.38967191766898
C           -1.97934843918765       -0.63318213928760        0.43563278623526
C           -2.12930677736947        0.84913567420476        0.19385298239289
O           -2.42186835190901        1.23004307470739       -0.91668415564954
O           -1.92075722563528        1.67350137888463        1.24572210656623
N           -3.23257473279946       -1.30049787139548        0.12383885486732
O            4.14085970756792        1.10399415476761        1.13262287246576
H            0.83417885771474       -1.95306695850296        1.60204047306720
H            2.98547280226193       -0.93254671864056        2.25765391853860
H            2.56780060172676        1.93510489924006       -0.85099297748614
H            0.41653800265648        0.93167221026869       -1.48739420115022
H           -1.02065285340737       -0.99883300196989       -1.44775223201623
H           -0.78511923341925       -2.28373326311408       -0.28446756155061
H           -1.76013357471734       -0.78786389464394        1.50348418677280
H           -2.06475720512551        2.58618592161968        0.93172831508823
H           -3.97478449110531       -0.89583062843181        0.67918220193447
H           -3.45872200667647       -1.09606129089040       -0.83966295943293
H            4.36058114555818        1.87279253443291        0.56523910703054
24
 energy: -4.366612808018 gnorm: 0.004172631259 xtb: 6.6.0 (conda-forge)
C            1.23703421033017       -1.12538537541146        1.05456139582405
C            2.43170107118607       -0.55284101962821        1.42020085548947
C            2.92697807552015        0.55976923599967        0.74063958986992
C            2.17468870876069        1.08433561437551       -0.31080813827422
C            0.97902485501127        0.50844861791290       -0.66908067091339
C            0.50056844884488       -0.61123873994078       -0.00256564006698
C           -0.82073367043116       -1.20871959632675       -0.37689370584081
C           -1.97955420105949       -0.63074291145192        0.43657456918856
C           -2.11113203097310        0.85173499082879        0.18686549833921
O           -2.36089013984007        1.23262343805674       -0.93497831651862
O           -1.93689168788736        1.67883768312547        1.24291219858602
N           -3.23809764928619       -1.28497319074172        0.11821723773343
O            4.13669729875928        1.10971449229811        1.12245122512185
H            0.85840951348556       -1.97771086220565        1.59215295368738
H            3.00793506064852       -0.94728931362910        2.23820506499289
H            2.53585115387825        1.95172225528588       -0.83436797440343
H            0.38724077947753        0.93804336339091       -1.45985339306432
H           -1.01633641497359       -1.02808915821919       -1.43820987803064
H           -0.78819562384673       -2.29592194910935       -0.25520733843596
H           -1.76974193038310       -0.78294848432853        1.50642137237256
H           -2.06542746985448        2.59092329641054        0.91927751215884
H           -3.97875136951727       -0.86408992719383        0.66285164892022
H           -3.45270137493810       -1.08457445912513       -0.84836208559169
H            4.34222438708791        1.88807199962699        0.56199601885584
24
 energy: -4.366710370098 gnorm: 0.006708257165 xtb: 6.6.0 (conda-forge)
C            1.25798243282714       -1.15068874556726        1.04564981793764
C            2.44985654304241       -0.56982934574850        1.40410835387645
C            2.92172532718717        0.56031286145890        0.73580547301963
C            2.14797546245908        1.09420820362217       -0.29569995444137
C            0.95519607568996        0.50947868366122       -0.64609356294852
C            0.50099123462702       -0.62738526759328        0.00799929850030
C           -0.82070883799559       -1.22910868224319       -0.35630454851648
C           -1.98047239095032       -0.62546564807342        0.43776853654416
C           -2.08501082308036        0.85695421905970        0.17494580459965
O           -2.27193939497995        1.23677630262136       -0.96158462086828
O           -1.96207756157170        1.68717584282579        1.23595256140734
N           -3.24632237591123       -1.26126530493399        0.11043455627327
O            4.13033358952199        1.11862708528359        1.10808542762380
H            0.89691190879570       -2.01611485115373        1.57498918773582
H            3.04283768659717       -0.97133649260871        2.20688182563059
H            2.48839630083096        1.97682269668200       -0.80838196974442
H            0.34379507841333        0.94756008253028       -1.41787498311964
H           -1.01043003285236       -1.07342300237575       -1.42272025220899
H           -0.79412577104609       -2.31344247448461       -0.20873337469891
H           -1.78545771114138       -0.77176786539662        1.51113387105707
H           -2.06603716919230        2.59864473709734        0.89967240080684
H           -3.98589889348539       -0.81811796037127        0.63860898237637
H           -3.44355635720365       -1.07074864607122       -0.86173637961398
H            4.31593567941787        1.91183357177906        0.56009354877191
24
 energy: -4.366798092153 gnorm: 0.006587976312 xtb: 6.6.0 (conda-forge)
C            1.27984613542524       -1.17574597199685        1.03512746684034
C            2.46927022499671       -0.58718540052895        1.38654537141900
C            2.91795569183592        0.56067912670799        0.73111922698272
C            2.12278184421704        1.10387831559808       -0.27984535864789
C            0.93271350214083        0.51060089258475       -0.62245770525290
C            0.50151840145560       -0.64253668194304        0.01841156992763
C           -0.82116131988037       -1.24772201304941       -0.33470136570476
C           -1.98216599632999       -0.61817796284190        0.43808573458278
C           -2.06271310600616        0.86348239960019        0.16174446421843
O           -2.19626244829136        1.24006484485099       -0.98318701000007
O           -1.98484820636783        1.69627230129009        1.22370695976495
N           -3.25384766346883       -1.23807318815366        0.10283257131933
O            4.12449158587450        1.12721812205607        1.09520282836966
H            0.93695411358796       -2.05437563452381        1.55559077760905
H            3.07831689742750       -0.99668108098604        2.17352495850494
H            2.44337530981864        2.00058242515809       -0.78135131188160
H            0.30269939790208        0.95662472289783       -1.37530201250749
H           -1.00481196165385       -1.11881072003296       -1.40603292106661
H           -0.80123469341881       -2.32857707948042       -0.16034486116638
H           -1.80212996707220       -0.75617165218251        1.51521748464897
H           -2.06570215234484        2.60726552493128        0.87874315684898
H           -3.99365667423013       -0.77616701980054        0.61422971414165
H           -3.43428336281967       -1.06162345246921       -0.87545203768558
H            4.29279444720133        1.93487918231373        0.56159229873522
24
 energy: -4.366857984521 gnorm: 0.004153559171 xtb: 6.6.0 (conda-forge)
C            1.29304008499274       -1.18871500718464        1.02695105489049
C            2.48206650694785       -0.59706183383020        1.37442226476907
C            2.91855036796126        0.56048046254168        0.72861077794168
C            2.11183241501917        1.10864900471554       -0.26998390799386
C            0.92250216645142        0.51168663475206       -0.60822285472794
C            0.50163120053398       -0.64875870021033        0.02432855175309
C           -0.82249555263342       -1.25464366734905       -0.32098894889090
C           -1.98453731126291       -0.61176697754517        0.43804620597747
C           -2.05667874683110        0.86849501860988        0.15310204542584
O           -2.16936093223405        1.24001485178518       -0.99075099458748
O           -1.99675364258586        1.70231262440350        1.21072057048070
N           -3.25680278964639       -1.22681139721990        0.09896722923964
O            4.12283527151136        1.13092830174355        1.09006264612027
H            0.96083975742555       -2.07456333979230        1.54131998420556
H            3.09913298019411       -1.01213690392317        2.15162311938831
H            2.42331532059906        2.01114804008881       -0.76486121454476
H            0.28384626942325        0.96115189596564       -1.35062762000623
H           -1.00288097136340       -1.14197644029307       -1.39431781296899
H           -0.80677309758929       -2.33257779747917       -0.13168913605705
H           -1.81355463128732       -0.74183998005854        1.51767495013961
H           -2.06648801815846        2.61297617803609        0.86476943323996
H           -3.99890383049075       -0.75998365191462        0.60084676839892
H           -3.42877302094445       -1.06268014956400       -0.88309537142141
H            4.28431020396684        1.94537283372203        0.56609225922839
24
 energy: -4.366897313405 gnorm: 0.005738946835 xtb: 6.6.0 (conda-forge)
C            1.31496977368073       -1.21174135288352        1.01523704664068
C            2.50432004752193       -0.61401455643437        1.35461567774757
C            2.91902084037249        0.56015496062613        0.72358459926164
C            2.09164888996853        1.11739354231023       -0.25358520718843
C            0.90255935037822        0.51424337673966       -0.58372971419955
C            0.50087064355773       -0.66052800656853        0.03561968294214
C           -0.82518817533857       -1.26896945180029       -0.29813705352344
C           -1.98834128161881       -0.60371339698281        0.44045387497250
C           -2.04140258068835        0.87516312831141        0.13918529986706
O           -2.09587565249311        1.23997542476801       -1.01571591752240
O           -2.02726683388986        1.71272509636280        1.19717438813676
N           -3.26312777749941       -1.20733911128626        0.09226607125661
O            4.12136167731336        1.13722301405040        1.07859282849214
H            1.00071281809761       -2.11019488469880        1.51943090934773
H            3.13698512635266       -1.03736427071932        2.11512516767630
H            2.38669704082435        2.03136083976988       -0.73737007513977
H            0.24697475489616        0.97090109492892       -1.30724048238839
H           -1.00034044085862       -1.18053514984247       -1.37511266729334
H           -0.81524938485900       -2.34281671183598       -0.08479912487763
H           -1.83364279161541       -0.72301239942151        1.52448458773492
H           -2.07415363936813        2.62219738664870        0.84233981843333
H           -4.00823956742371       -0.72709046475954        0.57809765769272
H           -3.41944534129588       -1.05774749352649       -0.89565269207299
H            4.26605250398412        1.96342938624353        0.56813532400429
24
 energy: -4.366933105471 gnorm: 0.002369987348 xtb: 6.6.0 (conda-forge)
C            1.31168611628251       -1.20650047611243        1.01614437958582
C            2.50329042695518       -0.61206159277935        1.35581935129399
C            2.92293290609633        0.55876765647655        0.72432670473241
C            2.09950647077549        1.11505179991472       -0.25525899561853
C            0.90858299819284        0.51530681569729       -0.58644556188918
C            0.50061074418180       -0.65571307826956        0.03477242019695
C           -0.82587830055095       -1.26279765090896       -0.30105714679158
C           -1.98918435416332       -0.60393706939911        0.44115055061847
C           -2.05023978064409        0.87444541663273        0.13985063529682
O           -2.11552404862193        1.23646495853101       -1.01330820583852
O           -2.02895383812095        1.71362992986944        1.19614601405295
N           -3.26094927119650       -1.21402177680920        0.09464393618827
O            4.12604157163241        1.13335858858689        1.08161460991701
H            0.99392712709743       -2.10250292986886        1.52074561916818
H            3.13296014478886       -1.03476997230240        2.11820034092939
H            2.39994270012952        2.02569996898285       -0.74064725685730
H            0.25684314298825        0.97105264877813       -1.31281381680335
H           -1.00233207703225       -1.16859752577429       -1.37649463592124
H           -0.81449669352862       -2.33688982265527       -0.09342929806507
H           -1.83176852141911       -0.72250054109026        1.52450994186526
H           -2.08190768215649        2.62283562413131        0.84338784295996
H           -4.00747384691091       -0.74024311268670        0.58416936596087
H           -3.42181025754937       -1.06276797458883       -0.89156664686881
H            4.27409432277290        1.95639011564409        0.56853985188769
24
 energy: -4.366961919827 gnorm: 0.001890154137 xtb: 6.6.0 (conda-forge)
C            1.31697929000151       -1.21001189063718        1.01327335602194
C            2.51150917034805       -0.61778431208207        1.34935259383315
C            2.92817580951491        0.55627650245995        0.72315418678736
C            2.10037268301705        1.11612097031505       -0.25004325184623
C            0.90735405300218        0.51835525961706       -0.57869829089495
C            0.50034610977750       -0.65479927357582        0.03929032635204
C           -0.82701825585293       -1.26175622039949       -0.29549262597619
C           -1.99165704963149       -0.60093648032251        0.44245729635296
C           -2.05423802253837        0.87627663069140        0.13414035631003