21
 energy: -38.779198881158 gnorm: 0.127993274757 xtb: 6.6.0 (conda-forge)
C            2.84800000000000        0.67190000000000        1.12130000000000
C            1.99290000000000       -0.54960000000000        1.00710000000000
O            2.35130000000000       -1.47890000000000        0.30170000000000
S            0.44340000000000       -0.66490000000000        1.90540000000000
C           -0.50050000000000        0.07210000000000        0.56090000000000
C           -0.64750000000000        1.46680000000000        0.56590000000000
C           -1.31840000000000        2.11430000000000       -0.47110000000000
C           -1.84900000000000        1.37530000000000       -1.52640000000000
C           -1.71800000000000       -0.01470000000000       -1.54390000000000
C           -1.05460000000000       -0.69080000000000       -0.50070000000000
C           -0.96250000000000       -2.17190000000000       -0.55980000000000
O           -1.06170000000000       -2.76500000000000       -1.66820000000000
O           -0.80250000000000       -2.92860000000000        0.59690000000000
H            2.38550000000000        1.40750000000000        1.81200000000000
H            3.84870000000000        0.39240000000000        1.51200000000000
H            2.96180000000000        1.14090000000000        0.12160000000000
H           -0.22810000000000        2.05500000000000        1.37260000000000
H           -1.42200000000000        3.19170000000000       -0.45930000000000
H           -2.36690000000000        1.87970000000000       -2.33200000000000
H           -2.15110000000000       -0.56390000000000       -2.37100000000000
H           -0.74890000000000       -3.93930000000000        0.55500000000000
21
 energy: -38.793966819579 gnorm: 0.052334043273 xtb: 6.6.0 (conda-forge)
C            2.83165049832299        0.67686644890993        1.13190771271035
C            2.01121669661492       -0.56342461737953        0.98594435109655
O            2.34066721509164       -1.48966758593465        0.29108598288301
S            0.45032678936426       -0.64445400645625        1.90002489749679
C           -0.49992160119361        0.07350260734511        0.55379508512619
C           -0.64120908452558        1.45612690074412        0.55676776925621
C           -1.31541334428430        2.09772551864363       -0.47044605894300
C           -1.84243561392640        1.35540855960813       -1.51608154780290
C           -1.71346457260317       -0.02607072823821       -1.52244196979845
C           -1.05551971445357       -0.69580955318174       -0.48393384829018
C           -0.96373567689728       -2.17179428836376       -0.57202238387663
O           -1.05895542333969       -2.75974882770843       -1.64193054804219
O           -0.81090227703055       -2.86314212806174        0.58031314068469
H            2.38208114090121        1.40198275483408        1.81461597326233
H            3.82273275915229        0.39673870850433        1.49980780904505
H            2.96070725351903        1.13017021143156        0.14468159498363
H           -0.22789090554983        2.03545123959928        1.36924738200366
H           -1.42178827055072        3.17297070248028       -0.45673162918250
H           -2.35828250652807        1.85353270916371       -2.32438807185787
H           -2.13422297768415       -0.59022301752890       -2.34249012113670
H           -0.75574038439940       -3.84614160841097        0.50227448038197
21
 energy: -38.797541471672 gnorm: 0.017168288020 xtb: 6.6.0 (conda-forge)
C            2.82551282038485        0.67508495746589        1.13589041650541
C            2.02559524464611       -0.57215919472372        0.96154010375465
O            2.32481561325771       -1.49779366055503        0.27189453780705
S            0.45597755112443       -0.62098343966315        1.91017436464578
C           -0.49597841259492        0.07525772459827        0.55461312797157
C           -0.64165675498658        1.45164428692291        0.55565506978523
C           -1.31741551462702        2.08835079090296       -0.47000642211332
C           -1.84280692896240        1.34131475933032       -1.51032756639774
C           -1.70561696016102       -0.03388145042758       -1.50783460882577
C           -1.04441801484094       -0.69562299865467       -0.47223799079355
C           -0.96207227721395       -2.17408621058965       -0.58131699515886
O           -1.04732953284573       -2.75870764833850       -1.63366554153736
O           -0.82126244525051       -2.80699285507774        0.57375693008917
H            2.36253210298892        1.37416596372185        1.82045289124363
H            3.81244652459070        0.39604137342192        1.49812843251969
H            2.95890795051591        1.13212363833518        0.15775889079648
H           -0.22132971286406        2.02400305301293        1.36731662156982
H           -1.42255354727298        3.16225235890913       -0.45811918754558
H           -2.35799152053427        1.83048548086614       -2.32280297091644
H           -2.12033058593855       -0.62098806632313       -2.31410080690535
H           -0.76512559941571       -3.76950886313433        0.46323070350550
21
 energy: -38.797946072013 gnorm: 0.009365717157 xtb: 6.6.0 (conda-forge)
C            2.82648907911647        0.66516101408661        1.13598530513150
C            2.02784258459563       -0.57969387654597        0.95279268075754
O            2.30273626049135       -1.50106361535760        0.24681288522976
S            0.45499727967033       -0.61277098081207        1.91634352603754
C           -0.49284278252122        0.08016148729652        0.55623345355842
C           -0.64259987420902        1.45707902996490        0.55444137270017
C           -1.32124209457291        2.09000469092572       -0.47219432376179
C           -1.84690516547329        1.34047205551964       -1.51182701171777
C           -1.70261937604477       -0.03337526959505       -1.50760937105638
C           -1.03551869805764       -0.68950580538664       -0.47250695694461
C           -0.94824669240867       -2.16956115204356       -0.57928367998629
O           -1.03010246717819       -2.75971194864068       -1.63316784120444
O           -0.82244135922461       -2.79279930264021        0.58254842889785
H            2.35722108451419        1.35107358184105        1.83148157098384
H            3.81571635751808        0.38693270550120        1.49569450595847
H            2.95632365381495        1.13814804805668        0.16367269939563
H           -0.22490008554480        2.02848515133798        1.36810604473578
H           -1.43083875779969        3.16315193306187       -0.45964385997147
H           -2.36636679185252        1.82471504487279       -2.32405625922816
H           -2.11121392733176       -0.63169742378340       -2.30889196911137
H           -0.76558822750193       -3.75520536765975        0.46506879959578
21
 energy: -38.798238707013 gnorm: 0.008061340784 xtb: 6.6.0 (conda-forge)
C            2.83351480045287        0.64599085598182        1.13690268614148
C            2.02114929240414       -0.58161046754490        0.92549132128932
O            2.25947785805870       -1.49900760310496        0.20128485693663
S            0.45267870292150       -0.59568198083792        1.92543700581180
C           -0.49321998147649        0.08913518779018        0.56112341365640
C           -0.65087300438467        1.46735554265426        0.55446219851583
C           -1.33230421415085        2.09324840947573       -0.47478513375897
C           -1.85372828451682        1.33990806568937       -1.51542749785564
C           -1.69574122117683       -0.03202498072464       -1.51063226366402
C           -1.02488411781341       -0.68019837222943       -0.47226790314269
C           -0.93381365491457       -2.16240659516823       -0.56942744515197
O           -0.98911092616151       -2.75801234522802       -1.62618705559835
O           -0.82511700579563       -2.78058997879867        0.59781818239254
H            2.36142407610037        1.31391478499494        1.85083162555697
H            3.82268421384607        0.35863192727652        1.49392010907604
H            2.96471497652670        1.14723333152129        0.17659803340852
H           -0.23561486239368        2.04010406420161        1.36864173244132
H           -1.44742705878628        3.16574724171007       -0.46348535387931
H           -2.38018620480213        1.81734271725786       -2.32685835646703
H           -2.09372520489306       -0.64525098582938       -2.30600284623725
H           -0.75999817904449       -3.74382881908741        0.47256269052836
21
 energy: -38.798400700689 gnorm: 0.009242121852 xtb: 6.6.0 (conda-forge)
C            2.84244676796871        0.63208802548474        1.13992150906095
C            2.01694538604816       -0.58146812599748        0.91414567596003
O            2.22429815230667       -1.48737104299374        0.16583370184845
S            0.44906349910939       -0.58341577713983        1.92885164340625
C           -0.49734150648508        0.09663100764316        0.56482642724902
C           -0.66088286148183        1.47524395364622        0.55479993196985
C           -1.34311790998606        2.09530229369469       -0.47690283331980
C           -1.85890279017660        1.33832761518232       -1.51830511134226
C           -1.69289414739477       -0.03268608849678       -1.51239473583798
C           -1.02079886117796       -0.67539010783694       -0.47065297188206
C           -0.91398859790312       -2.15698339084815       -0.56350980585641
O           -0.96227321559750       -2.75453452100187       -1.61939421706147
O           -0.82490214767341       -2.77707391748450        0.60568524787107
H            2.37915204000391        1.29165634761617        1.86770171333933
H            3.83155858008550        0.33114787496272        1.48751367456456
H            2.97268574705442        1.15044820814309        0.18797815006744
H           -0.24866160787504        2.05112921999775        1.36853428392731
H           -1.46329594173125        3.16748344645071       -0.46762515073165
H           -2.38748904721874        1.81212214460295       -2.33052317493987
H           -2.08102432039967       -0.65167468824646       -2.30784775865982
H           -0.76067721747582       -3.74098247737866        0.48136380036704
21
 energy: -38.798663820672 gnorm: 0.008083492568 xtb: 6.6.0 (conda-forge)
C            2.85772470566989        0.61426874528812        1.14594211244979
C            2.00684822380491       -0.57563428920575        0.89994657635406
O            2.18101031854640       -1.46713107768384        0.12836894122291
S            0.44297693703368       -0.56611376832394        1.93017204490451
C           -0.50715054744151        0.10575111512974        0.56868613599623
C           -0.67687317033896        1.48419718260493        0.55539336168685
C           -1.35881114795813        2.09748213239302       -0.47948780108732
C           -1.86633486365138        1.33573820156484       -1.52163424596838
C           -1.69181013687016       -0.03423600517202       -1.51480515640834
C           -1.02131460003187       -0.67134540504258       -0.46817849137728
C           -0.90007560689923       -2.15134955120617       -0.55661890099305
O           -0.92682019889834       -2.74994152159018       -1.61213165030871
O           -0.82092368688950       -2.77424456544937        0.61267743647244
H            2.41253518649964        1.26996475803396        1.88741944320526
H            3.84343148409036        0.28790477314353        1.48165099350742
H            2.99269179209288        1.14751724180046        0.20350234971484
H           -0.26815701267741        2.06500339975735        1.36772063283818
H           -1.48422573405153        3.16944002742168       -0.47408110478903
H           -2.39488937969039        1.80644240604415       -2.33577708494269
H           -2.07046109566013       -0.65553010524391       -2.31215342088092
H           -0.74947146667933       -3.73818369426382        0.49338782840321
21
 energy: -38.799268245511 gnorm: 0.012991927152 xtb: 6.6.0 (conda-forge)
C            2.89832930696676        0.57497132891200        1.16309841298379
C            1.98177417444303       -0.55673269558218        0.87204842504120
O            2.08446237954246       -1.41384550563966        0.04766377247755
S            0.43234938818573       -0.52091333434947        1.93289784118915
C           -0.53183256966433        0.12505316699987        0.57601483582739
C           -0.71651770992155        1.50162829547298        0.55648404617227
C           -1.39660021293672        2.10104107698779       -0.48613708033344
C           -1.88408352191220        1.32806287916482       -1.52964813242358
C           -1.69289892308472       -0.03982984143780       -1.51870268986496
C           -1.02620025326062       -0.66498009060613       -0.46209950032945
C           -0.87135217399495       -2.14043287769963       -0.54536128261621
O           -0.85568659901766       -2.74052136254376       -1.59885825203635
O           -0.81078276214726       -2.76562128038190        0.62517397910873
H            2.49909883968214        1.22563043247836        1.93510801485173
H            3.87271478683167        0.18327352977559        1.47040470392337
H            3.04738551646714        1.13686718066868        0.24032194750401
H           -0.31633830813443        2.09300158403565        1.36596028968269
H           -1.53277713824243        3.17228187512467       -0.49026212678992
H           -2.40848342725550        1.79235144984270       -2.35050022765490
H           -2.05422129941631       -0.66258241501027       -2.32187510365010
H           -0.71843949313043       -3.72870339621200        0.51826812693699
21
 energy: -38.800038038991 gnorm: 0.019496723557 xtb: 6.6.0 (conda-forge)
C            2.96044880448320        0.52066414599111        1.18495174561859
C            1.95114398105552       -0.52602415877179        0.83826304171911
O            1.97434365030353       -1.33373629462182       -0.04329311827415
S            0.42594535331960       -0.45727870730991        1.92944874612766
C           -0.56865667491724        0.14939298542448        0.58313964552860
C           -0.77794432473258        1.52192743209213        0.55934484059199
C           -1.45386858630389        2.10499046793490       -0.49400658672740
C           -1.90962611756768        1.31771939826411       -1.54149592326989
C           -1.69612000270414       -0.04739849088731       -1.52496560237902
C           -1.03585018135223       -0.65793701473194       -0.45590212727176
C           -0.83602465501962       -2.12646157811401       -0.53336128162127
O           -0.76749707045293       -2.72857297731911       -1.58212849906410
O           -0.80187610899207       -2.75050192687309        0.64117000840283
H            2.62390518533385        1.16501449869715        1.99461644809357
H            3.91217020612401        0.03849911383876        1.45709285321499
H            3.13654963472339        1.11513268240760        0.28787587034542
H           -0.39251333250740        2.12596509562294        1.36741089316794
H           -1.60591310497187        3.17468560501662       -0.50914043134356
H           -2.42433197345067        1.77407870214740       -2.37350983576205
H           -2.03508488734162       -0.66835485778387       -2.33878324871314
H           -0.67929979502945       -3.71180412102386        0.55327256161560
21
 energy: -38.800822709974 gnorm: 0.029445787482 xtb: 6.6.0 (conda-forge)
C            3.00868805659509        0.48433570002967        1.19713324047612
C            1.94207115501438       -0.50178021901695        0.83149490416694
O            1.94191774550460       -1.26985743365986       -0.06922095516926
S            0.43567841785054       -0.41414853526148        1.91411386808106
C           -0.59483334126463        0.16217590429162        0.58179310945024
C           -0.82748923059526        1.52926160716240        0.56292754683550
C           -1.49936163363205        2.10572822774398       -0.49648106911739
C           -1.92716882576913        1.31136617422105       -1.54975126061180
C           -1.70058549204711       -0.05187012433655       -1.53036198976815
C           -1.04689208926226       -0.65637524961038       -0.45527152914813
C           -0.82531075129218       -2.11881090865482       -0.53094137472728
O           -0.72602496322418       -2.72063299659144       -1.57284937375807
O           -0.80276653548513       -2.73730578843931        0.64697823622921
H            2.71091505738119        1.12736007696046        2.01915295881863
H            3.93433035307495       -0.05003728458808        1.45164284756579
H            3.21277430086934        1.08148110459313        0.31252389017506
H           -0.45674529359653        2.13964399760113        1.37328730179164
H           -1.66389617394051        3.17350214570212       -0.51578924690170
H           -2.42885284364046        1.76494194457379       -2.39177145241313
H           -2.02891751474697       -0.66305007523447       -2.35586426662946
H           -0.65763039779402       -3.69592826748543        0.57725461465413
21
 energy: -38.801976085425 gnorm: 0.028405527864 xtb: 6.6.0 (conda-forge)
C            3.06422330910204        0.42673911153331        1.21722963525517
C            1.94129065327472       -0.48415684044380        0.82867051953646
O            1.86723662008202       -1.17752976849354       -0.15706260880560
S            0.45480828743283       -0.35137673473761        1.90482434698993
C           -0.61695839101330        0.18135694870556        0.58057233328864
C           -0.88369198528305        1.54224812162120        0.56330370644589
C           -1.55390395514214        2.10743242966353       -0.50423580579169
C           -1.94941659760054        1.30366119687577       -1.56315360847436
C           -1.69996637242110       -0.05574706922661       -1.53731771488318
C           -1.04857526209998       -0.64809441689937       -0.45527592296457
C           -0.81570382892937       -2.10713159667872       -0.52038851922937
O           -0.65429196567574       -2.71250341896906       -1.55645484854576
O           -0.80865661702216       -2.70934047787983        0.66555897880128
H            2.80411201289596        1.04759946337811        2.06665247845798
H            3.95948084388524       -0.15384469633445        1.44229355392519
H            3.28895316361502        1.04494949324910        0.35318375042871
H           -0.53136780776900        2.15884875583646        1.37706939050762
H           -1.73539785755560        3.17187984728802       -0.52771527708756
H           -2.44193028021229        1.74774789316518       -2.41585102187437
H           -2.01390341308833       -0.66918605404804       -2.36786514796233
H           -0.62644055647565       -3.66355218760448        0.60596178198186
21
 energy: -38.803310929397 gnorm: 0.019873160595 xtb: 6.6.0 (conda-forge)
C            3.09156745853469        0.38546997621352        1.22806862449695
C            1.93366340888676       -0.46710014676252        0.79507054170219
O            1.83855256294842       -1.13560305607539       -0.20252325809904
S            0.47631124448991       -0.30397637630270        1.90120243927137
C           -0.62008292756189        0.19740417909206        0.57774607422856
C           -0.91255321257230        1.55459119497821        0.55875233581214
C           -1.58938924354036        2.10934949481804       -0.51137596030421
C           -1.97032658544625        1.30040512309866       -1.57171621236892
C           -1.70188534367547       -0.05565946528360       -1.54004325528296
C           -1.03572580201834       -0.63535001087889       -0.45938018136219
C           -0.78207758775759       -2.09574340742571       -0.51494301527273
O           -0.61996866491546       -2.70899282060533       -1.54264494667144
O           -0.80572959909783       -2.68313240296994        0.68089863070987
H            2.84122722023845        0.98320831328764        2.09735510018381
H            3.95983128060430       -0.23265573524132        1.45121506686275
H            3.34710908444581        1.03257684276714        0.38263980990260
H           -0.57236937504998        2.17230064438147        1.37629518077270
H           -1.78720336399942        3.17043653681642       -0.53199106364160
H           -2.46556147731225        1.73333339394390       -2.42754606690164
H           -2.00110622871479       -0.68595590830763       -2.36561586210940
H           -0.62438284848688       -3.63490636954325        0.61853601807111
21
 energy: -38.803973097058 gnorm: 0.027154301310 xtb: 6.6.0 (conda-forge)
C            3.10492084105363        0.33923265509408        1.23941235396264
C            1.94640836089976       -0.45877379051111        0.78898991647764
O            1.86711397593563       -1.10577128430118       -0.20359594202624
S            0.50953882283542       -0.26188761227261        1.88291789107837
C           -0.60811572530273        0.21820394838775        0.56268145673376
C           -0.93095950470714        1.56904972097204        0.54545565153587
C           -1.62502546388658        2.11292888599749       -0.52110258273376
C           -1.99590401943450        1.30388873412523       -1.58342816197097
C           -1.70370249978747       -0.04656427078574       -1.54833975833330
C           -1.01156177321231       -0.61140859916957       -0.47519450204163
C           -0.75537888838819       -2.07883149876615       -0.51165453289580
O           -0.61239028685539       -2.71191795855601       -1.52874657597386
O           -0.78779561771331       -2.64131306098326        0.69585625284711
H            2.84963150880554        0.91136693201394        2.12272617227261
H            3.94721800512299       -0.30479021420986        1.45049989067046
H            3.38289080861861        0.99677898980625        0.40820335363783
H           -0.60699877604217        2.18145045551362        1.37181269842180
H           -1.84800538945219        3.16802855054283       -0.52692235250465
H           -2.50649642979927        1.72056800829204       -2.43573519634004
H           -1.99315421952686       -0.70704387841575       -2.35589850273291
H           -0.62233372916396       -3.59319471277326        0.62206246991498
21
 energy: -38.805460345588 gnorm: 0.025768566809 xtb: 6.6.0 (conda-forge)
C            3.16938538289966        0.27147624016021        1.27195603906730
C            1.92711240755479       -0.42434588742484        0.76567935356701
O            1.80189123545537       -1.01714130210923       -0.26769882582689
S            0.51434473458264       -0.19451624513526        1.85872724301270
C           -0.63495751124296        0.25106133236712        0.55543359514296
C           -0.99075056368790        1.59431583309186        0.53763877311786
C           -1.69256145900665        2.11756910906233       -0.53390299545747
C           -2.03278956786734        1.29567171264603       -1.59997683512521
C           -1.70981585047997       -0.04902719837823       -1.56113876532524
C           -1.01113022628090       -0.59391886684214       -0.48150874365999
C           -0.71860873686140       -2.05778639661326       -0.50168823904985
O           -0.56241596042364       -2.70572622935849       -1.50695314367562
O           -0.75510245136824       -2.60914595804427        0.71145469632739
H            2.96855780597342        0.83327804077949        2.18832540986074
H            3.98141767397306       -0.46783234389567        1.43930162453710
H            3.48223315560834        0.95647057377260        0.47172821747470
H           -0.68611871630664        2.21579697589491        1.36596945745049
H           -1.94270116103875        3.16817350450954       -0.54141533758705
H           -2.54644515007722        1.69777244303214       -2.45803978703269
H           -1.97899209032047       -0.71947782365495       -2.36763111789662
H           -0.58265295108577       -3.56266751385899        0.65373938107826
21
 energy: -38.806422428349 gnorm: 0.025409222368 xtb: 6.6.0 (conda-forge)
C            3.19875460477032        0.22165418845920        1.28679601279301
C            1.93307643118517       -0.42550165136351        0.76798320352723
O            1.78460463819905       -0.98627610472917       -0.29348728848050
S            0.52328850466288       -0.15327926155119        1.84721966531312
C           -0.63549603782245        0.27194177713626        0.54635574682618
C           -1.01634989484500        1.60901141893320        0.53102716064375
C           -1.73007326892435        2.11927265507669       -0.53868529859021
C           -2.05498997923083        1.29142678740787       -1.60538811348928
C           -1.70947360237467       -0.04782576076127       -1.56780176453848
C           -1.00281331345276       -0.58088915859722       -0.48768766148475
C           -0.70618614784654       -2.04230933548392       -0.50005697238800
O           -0.55542511924206       -2.69863165438753       -1.49886454790694
O           -0.72632167823801       -2.58153955861099        0.71648284135216
H            3.00017318400092        0.77505367289876        2.19644800011893
H            3.98839225306276       -0.50700642505805        1.45450983100964
H            3.53691055762633        0.90666227781816        0.50016535392339
H           -0.72317684586417        2.23607093690023        1.35951350360170
H           -1.99975844123675        3.16581982857985       -0.54565653748924
H           -2.57584478126773        1.68501323428067       -2.46366109288630
H           -1.97045797261315       -0.72237938922324       -2.37208998048592
H           -0.55893309054954       -3.53628847772394        0.66687793863037
21
 energy: -38.807721548709 gnorm: 0.014593897157 xtb: 6.6.0 (conda-forge)
C            3.21691288395749        0.16684903720799        1.29674242529215
C            1.94375452610666       -0.42950258514560        0.77003895758617
O            1.79744709860251       -0.97717849972082       -0.28719113037274
S            0.53153511029249       -0.10314648081045        1.83306461689591
C           -0.63426458090457        0.30131724552954        0.53543647242538
C           -1.04100605230536        1.63049988061432        0.51903498205907
C           -1.77335399453818        2.12222313314929       -0.54628458803427
C           -2.08583917312157        1.28815478280053       -1.61088504578669
C           -1.71195231235062       -0.04292837479635       -1.57611993294693
C           -0.99428391242588       -0.56017747471881       -0.49524367941788
C           -0.69308716514856       -2.01847896310547       -0.49855443298976
O           -0.54097966569258       -2.68731191439377       -1.49645725942735
O           -0.68471595141477       -2.54439160299046        0.72373744191738
H            3.03258920098542        0.70433177315938        2.22135087410689
H            3.98241191741283       -0.57944522878604        1.45341279283130
H            3.58045704157912        0.85699872846588        0.52855612266410
H           -0.75685852528808        2.26560248488798        1.34367980196607
H           -2.06741213773044        3.16249923819200       -0.55307410599586
H           -2.62187146266078        1.67082082994128       -2.46559956475759
H           -1.96083984564179       -0.72391493307324       -2.37700473029855
H           -0.51874299971387       -3.50282107640636        0.68135998228302
21
 energy: -38.809375754949 gnorm: 0.015974052054 xtb: 6.6.0 (conda-forge)
C            3.24500182247941        0.08646019150831        1.32871280040269
C            1.95798020642314       -0.41962918844854        0.77373502652507
O            1.80651420515384       -0.92791429765858       -0.30245915376694
S            0.54555811969497       -0.02204528016288        1.80773261783912
C           -0.62856724297380        0.34871287679797        0.51668794384949
C           -1.07700590235996        1.66351680104759        0.49592353253816
C           -1.83813578279042        2.12300479967540       -0.56362616891025
C           -2.13259120723855        1.27635278103061       -1.62117597693155
C           -1.71712495191666       -0.04073712234127       -1.58487706186625
C           -0.97787191865555       -0.53073011059804       -0.50480401776607
C           -0.66486911492273       -1.98206018590812       -0.49630571389933
O           -0.56932987110503       -2.66377951995508       -1.48607971862979
O           -0.59448402732667       -2.49272136162522        0.73006584910287
H            3.09285515828417        0.59392522397257        2.28411312075189
H            3.97187061950815       -0.72344282225368        1.44509342118246
H            3.64316429193866        0.78806869754225        0.59484906497417
H           -0.80556124320042        2.31515614586362        1.31088736040489
H           -2.16787317523771        3.15211338234894       -0.57572232498203
H           -2.68972081787092        1.64077938843864       -2.47222691119991
H           -1.94787929280701       -0.72862907170979       -2.38222753501636
H           -0.45202987507744       -3.45640132756393        0.70170384539748
21
 energy: -38.810628255951 gnorm: 0.020359025691 xtb: 6.6.0 (conda-forge)
C            3.28462151751259       -0.01246439489972        1.36874851149347
C            1.96402082716244       -0.40178159840740        0.74907674073884
O            1.80190889258408       -0.86947445648846       -0.34328151077341
S            0.56274804268518        0.06706258384362        1.77085526571202
C           -0.63560933384239        0.40231340798952        0.50001739642584
C           -1.12099032991938        1.70212964578162        0.47036263548721
C           -1.91080050105244        2.12674664156527       -0.58327538906190
C           -2.18707997949202        1.26483152065938       -1.63284096474254
C           -1.72932719438731       -0.03732905318702       -1.59154204737907
C           -0.97185122217094       -0.49715065555490       -0.51033270952645