11
 energy: -16.143787324412 gnorm: 0.067032027141 xtb: 6.6.0 (conda-forge)
C           -0.16250000000000        1.16310000000000       -0.02200000000000
C           -1.26170000000000        0.30300000000000        0.03090000000000
C           -1.04790000000000       -1.07790000000000        0.05640000000000
N            0.21950000000000       -1.57160000000000        0.02980000000000
C            1.30340000000000       -0.75090000000000       -0.02170000000000
C            1.13060000000000        0.63570000000000       -0.04860000000000
H           -0.31220000000000        2.23480000000000       -0.04230000000000
H           -2.26780000000000        0.70150000000000        0.05180000000000
H           -1.88920000000000       -1.75670000000000        0.09730000000000
H            2.29870000000000       -1.17440000000000       -0.04180000000000
H            1.98920000000000        1.29340000000000       -0.08960000000000
11
 energy: -16.149734886679 gnorm: 0.017873249216 xtb: 6.6.0 (conda-forge)
C           -0.16357107934373        1.17092604303112       -0.02215352418539
C           -1.24642427813183        0.30822891076549        0.03028028128751
C           -1.00725377743163       -1.06062735400278        0.05476491552021
N            0.21942708420612       -1.57086838883194        0.02977271159915
C            1.25956171893329       -0.74537591404127       -0.02053107121469
C            1.11447505988366        0.63654184304003       -0.04813902345363
H           -0.31301286393157        2.24082143691739       -0.04241363812726
H           -2.25584622716344        0.69391806076082        0.05164659949336
H           -1.82716858676766       -1.76100245758800        0.09556576309852
H            2.24015542608372       -1.19543382025275       -0.03953533011331
H            1.97975752366308        1.28287164020190       -0.08905768390445
11
 energy: -16.150094710180 gnorm: 0.004357948701 xtb: 6.6.0 (conda-forge)
C           -0.16423357002704        1.17575195476113       -0.02224868837657
C           -1.24531716964796        0.31122565626426        0.03018547359630
C           -0.99533283446311       -1.05340029498085        0.05424799714189
N            0.21919596140299       -1.56912978325196        0.02973801104513
C            1.24611122029784       -0.74169586267424       -0.02020884260314
C            1.11258878780031        0.63910905848242       -0.04814528343592
H           -0.31369579687403        2.24579318613572       -0.04251149223817
H           -2.25704311131575        0.68813177042676        0.05181303180638
H           -1.80711597105772       -1.76688273685398        0.09509538912288
H            2.22246793506624       -1.20655702268004       -0.03875348194810
H            1.98247454881825        1.27765407437077       -0.08901211411068
11
 energy: -16.150106623290 gnorm: 0.001511347162 xtb: 6.6.0 (conda-forge)
C           -0.16423521354098        1.17578881183030       -0.02224911205258
C           -1.24628336767127        0.31163209005529        0.03019864145610
C           -0.99634434052120       -1.05271348908740        0.05425546184637
N            0.21923749070132       -1.56944186497535        0.02974010421912
C            1.24689222382634       -0.74076791684865       -0.02025754179638
C            1.11340699007635        0.63976221788292       -0.04818200150697
H           -0.31371710840359        2.24596077061499       -0.04251640001311
H           -2.25801926169275        0.68731674824018        0.05186599422019
H           -1.80786068751616       -1.76761987280866        0.09514323226882
H            2.22339003218112       -1.20706032169143       -0.03876563576582
H            1.98363324256083        1.27714282678779       -0.08903274287573
11
 energy: -16.150108060699 gnorm: 0.000743862543 xtb: 6.6.0 (conda-forge)
C           -0.16424783457239        1.17591136574964       -0.02225256916774
C           -1.24682738643576        0.31215862684520        0.03020925257958
C           -0.99681196575452       -1.05179058579888        0.05425878167055
N            0.21924828751147       -1.56952859702610        0.02974524416080
C            1.24708476476338       -0.73976468281615       -0.02028368563717
C            1.11378598866593        0.64041403083708       -0.04820987997348
H           -0.31375144268671        2.24621733549842       -0.04252265919995
H           -2.25866278371006        0.68644159543117        0.05190143963707
H           -1.80738493187756       -1.76850480990351        0.09513931850603
H            2.22317931166539       -1.20803500367284       -0.03874261095493
H            1.98448799243085        1.27648072485596       -0.08904263162078
