28
 energy: -49.400909844503 gnorm: 0.000375723603 xtb: 6.6.0 (conda-forge)
C           -2.72719330859311        2.10698482724541       -1.10340302451990
N           -2.08922874796013        0.97604170024933       -0.48691944053454
C           -0.72731428351292        0.74724005175733       -0.39340512503075
C           -0.55933319156672       -0.45412628762613        0.27217247731863
N            0.63127346776309       -1.02000800679480        0.55425425733400
C            1.65738023632772       -0.33542489069825        0.14325301676938
N            1.60398554161864        0.85023692744777       -0.51504906558847
C            0.38585241924787        1.50614524375709       -0.84768891262152
O            0.39831545401328        2.56789754526143       -1.44039101480453
C            2.84047655769581        1.49433926753409       -0.90992663359470
O            2.89508598044588       -0.78387179472534        0.35680075650107
C            2.99466487395433       -2.02156243117540        1.04269060244205
N           -1.78844876428140       -0.94596650101426        0.57772169025598
C           -2.75945814510950       -0.06069391790841        0.10774994420637
O           -3.95700623814623       -0.20262963358288        0.21448211575449
C           -2.09390506691468       -2.16767700871679        1.26922747527762
H           -2.44242748124664        2.17517357107537       -2.15389673340657
H           -3.80274735469007        1.96165229742498       -1.01504217515426
H           -2.43142248361859        3.02919109493331       -0.60167635555714
H            3.45875667753494        1.69012481312164       -0.03476930884735
H            2.56762735442547        2.42990792300576       -1.39642663990927
H            3.39232862652629        0.85857945659163       -1.60147051714460
H            4.05953584524817       -2.22258378789190        1.13369495419793
H            2.53041097907964       -1.95207964291348        2.02755890986691
H            2.50085945164024       -2.81333700725260        0.47724709954973
H           -3.17918473893924       -2.25663772355866        1.29591277691326
H           -1.66071425778068       -3.01794540128157        0.74216515337130
H           -1.69836940316145       -2.13897068426462        2.28523371695488
