15
 energy: -19.049196260319 gnorm: 0.040868531439 xtb: 6.6.0 (conda-forge)
C            2.16210000000000       -0.43100000000000       -0.27370000000000
C            0.69710000000000       -0.14980000000000       -0.11690000000000
C            0.18180000000000        1.11750000000000       -0.43460000000000
C           -1.17800000000000        1.38990000000000       -0.25290000000000
C           -2.02770000000000        0.40480000000000        0.25820000000000
C           -1.51800000000000       -0.85290000000000        0.59310000000000
C           -0.15880000000000       -1.12920000000000        0.41290000000000
H            2.33360000000000       -1.50760000000000       -0.48710000000000
H            2.69240000000000       -0.15820000000000        0.66250000000000
H            2.58600000000000        0.15740000000000       -1.11510000000000
H            0.83120000000000        1.89260000000000       -0.82260000000000
H           -1.57220000000000        2.36600000000000       -0.50470000000000
H           -3.07950000000000        0.61750000000000        0.39960000000000
H           -2.17530000000000       -1.61250000000000        0.99610000000000
H            0.22530000000000       -2.10450000000000        0.68520000000000
15
 energy: -19.051463259688 gnorm: 0.008498921124 xtb: 6.6.0 (conda-forge)
C            2.15370721618497       -0.43020629427257       -0.27499107423335
C            0.69284402739480       -0.14407627039761       -0.10349191505884
C            0.17348795723779        1.10573255290460       -0.42738369148999
C           -1.17411617848461        1.37824782271506       -0.24826890768463
C           -2.01908394146018        0.40397724896846        0.25949651463353
C           -1.51075905061301       -0.84252958807122        0.58947191380824
C           -0.16299150965062       -1.11391374017103        0.40995154498140
H            2.32858358769164       -1.48945632359556       -0.47506492914338
H            2.69475018824026       -0.16796507610492        0.63773140883304
H            2.57764324970371        0.15357567697113       -1.09478083820666
H            0.82369291451749        1.87191205971984       -0.82402834008961
H           -1.56600900365070        2.35190015169266       -0.50390591501356
H           -3.06943449660313        0.61502317942643        0.39706652506803
H           -2.16561100790722       -1.60350295835052        0.98817683360817
H            0.22329604739881       -2.08871844143473        0.67002086998760
15
 energy: -19.051547416863 gnorm: 0.001402566399 xtb: 6.6.0 (conda-forge)
C            2.15374127893484       -0.42995439236575       -0.27431712581019
C            0.69367075897066       -0.14355212748617       -0.10175084724986
C            0.17237653236585        1.10257309853174       -0.42645156995917
C           -1.17227953180574        1.37588910684254       -0.24723275847417
C           -2.01705549504694        0.40416746093510        0.26082493997407
C           -1.50827343177322       -0.84062245910751        0.58896201219928
C           -0.16314137442559       -1.11075414165139        0.40855737301008
H            2.32085897831649       -1.48583439495525       -0.47250715165596
H            2.69252537064536       -0.16824533841957        0.63628341382989
H            2.56955310402227        0.15483152881386       -1.09114223185868
H            0.82472097472871        1.86622835113212       -0.82449092732218
H           -1.56303505612817        2.34896195893548       -0.50621209958095
H           -3.06710864985853        0.61521140180853        0.39846546288774
H           -2.16222964719827       -1.60366244952606        0.98483386444671
H            0.22567618825229       -2.08523760348767        0.66617764556341
15
 energy: -19.051549809602 gnorm: 0.000251553876 xtb: 6.6.0 (conda-forge)
C            2.15491654730383       -0.43015747916974       -0.27439230308819
C            0.69426386787762       -0.14330252517317       -0.10083398278921
C            0.17183605064816        1.10266400335266       -0.42625078898684
C           -1.17284117357946        1.37598487618044       -0.24774517375913
C           -2.01806157882597        0.40431788060910        0.26082213465591
C           -1.50888843104606       -0.84086904464690        0.58859757180187
C           -0.16365993401951       -1.11054501073418        0.40875045774471
H            2.32073028069793       -1.48604888911400       -0.47244851651760
H            2.69329467262580       -0.16841254090093        0.63648946370544
H            2.56951385793749        0.15526540150551       -1.09109720051501
H            0.82534990952095        1.86552358479279       -0.82491391424117
H           -1.56282970262437        2.34941823442496       -0.50702200724056
H           -3.06781295379715        0.61586602016777        0.39989109895336
H           -2.16222247150710       -1.60454825023355        0.98459205364349
H            0.22641105878785       -2.08515626106075        0.66556110663295
