24
 energy: -42.131861447414 gnorm: 0.161584060957 xtb: 6.6.0 (conda-forge)
C            3.26300000000000        0.66560000000000       -0.21270000000000
N            2.13090000000000       -0.25520000000000       -0.19970000000000
C            2.16940000000000       -1.59870000000000       -0.37710000000000
N            0.94220000000000       -2.17970000000000       -0.32860000000000
C            0.12290000000000       -1.13140000000000       -0.10850000000000
C            0.82680000000000        0.02100000000000       -0.03340000000000
C            0.17640000000000        1.23210000000000        0.16280000000000
O            0.83070000000000        2.30980000000000        0.21200000000000
N           -1.19410000000000        1.22160000000000        0.29150000000000
C           -1.89560000000000        0.03160000000000        0.18110000000000
O           -3.15820000000000        0.04070000000000        0.23340000000000
N           -1.23240000000000       -1.16450000000000        0.00710000000000
C           -1.96780000000000       -2.42820000000000       -0.13450000000000
C           -1.92340000000000        2.48920000000000        0.46330000000000
H            4.21460000000000        0.10900000000000       -0.34870000000000
H            3.14930000000000        1.38690000000000       -1.04900000000000
H            3.30900000000000        1.21690000000000        0.74980000000000
H            3.08170000000000       -2.15660000000000       -0.54540000000000
H           -1.32860000000000       -3.29890000000000        0.12490000000000
H           -2.84180000000000       -2.45190000000000        0.55100000000000
H           -2.32080000000000       -2.53760000000000       -1.18150000000000
H           -2.83900000000000        2.34400000000000        1.07560000000000
H           -2.20900000000000        2.89180000000000       -0.53120000000000
H           -1.30610000000000        3.24260000000000        0.99770000000000
24
 energy: -42.149081846207 gnorm: 0.069088806041 xtb: 6.6.0 (conda-forge)
C            3.25813885775119        0.64800645507900       -0.21385655385655
N            2.14177860801408       -0.26717148462268       -0.20293699317953
C            2.16923539074132       -1.60519599023500       -0.37701690692917
N            0.96331220754122       -2.17341511771822       -0.32727545927788
C            0.12257267155286       -1.13619225786654       -0.11067651663057
C            0.82891329264777        0.04219335582129       -0.03082665550818
C            0.18090513100976        1.28283008494405        0.16937737939273
O            0.79477258281186        2.35587808315178        0.22585850569841
N           -1.19522785588472        1.21747498058154        0.29118289699294
C           -1.91040285748785        0.02975790589257        0.18139108947551
O           -3.13661023440367        0.03763569734788        0.24404639045592
N           -1.23652890339887       -1.16236988957434        0.00848101852988
C           -1.96943651010286       -2.41036200430452       -0.13323829447630
C           -1.92661443639088        2.46600146981337        0.46021872617146
H            4.19036957024083        0.09242203099764       -0.34855073725094
H            3.13926740160893        1.37039279493384       -1.02799357738657
H            3.29357757878132        1.20373869277643        0.72864741929483
H            3.07152858510731       -2.16223916436380       -0.54238595266112
H           -1.30647908044103       -3.24416170834043        0.11861136655388
H           -2.83286073888544       -2.41136814067244        0.53946612781938
H           -2.32028859650758       -2.52669118773530       -1.16409196529563
H           -2.82873862995963        2.29269728748404        1.05462496815189
H           -2.20811333464669        2.87130514961310       -0.51710888150264
H           -1.28297069969922        3.18893295699674        0.97395260541823
24
 energy: -42.153072921502 gnorm: 0.016332718556 xtb: 6.6.0 (conda-forge)
C            3.25482812456736        0.63466876430870       -0.21414678812821
N            2.14923625847507       -0.27829113225070       -0.20560601394305
C            2.16413587478032       -1.61201770952060       -0.37522470270988
N            0.97164157953246       -2.16449270342367       -0.32760932312242
C            0.12374980353055       -1.13167000391341       -0.11474730465952
C            0.83134874352796        0.05962718584243       -0.03126566985084
C            0.19448779056157        1.32412382220815        0.16997989070876
O            0.76991473058280        2.39684152088122        0.23709355604758
N           -1.18698530835217        1.20798220566128        0.28469672657532
C           -1.92337710416284        0.02936165761354        0.18089814970130
O           -3.12941119526788        0.03931169221868        0.25311903424959
N           -1.23389537342780       -1.15429208832867        0.00737224856473
C           -1.96596593829137       -2.39366603272698       -0.13203291376171
C           -1.92867905188229        2.44177758944639        0.45743293490846
H            4.17824178631702        0.07966036874175       -0.34763401798449
H            3.13438543953047        1.35660852295350       -1.02121658890336
H            3.28475034256832        1.19051806713515        0.72197434569393
H            3.06172765080063       -2.17204552211169       -0.53713427083745
H           -1.29190496602912       -3.20788057133727        0.11721760134981
H           -2.82295250428477       -2.37812221364556        0.53640507232660
H           -2.32058307801327       -2.51481810170012       -1.15526251331561
H           -2.82125130614811        2.24577070147880        1.04394881899669
H           -2.21682313018712        2.85031870644450       -0.51037143118594
H           -1.27651916872778        3.15082527402459        0.96201315927972
24
 energy: -42.153473047507 gnorm: 0.008020459923 xtb: 6.6.0 (conda-forge)
C            3.25972809212553        0.62927410146207       -0.21293252707181
N            2.15278570534044       -0.28133551497583       -0.20768022285434
C            2.16160911867658       -1.61505505407701       -0.37462966900500
N            0.96663109725888       -2.16136167085453       -0.32864431527633
C            0.12395893813446       -1.12451669789769       -0.12105751600463
C            0.83399945089925        0.06598390236160       -0.03692600031910
C            0.20225901394773        1.33607943671056        0.16353288418303
O            0.76328456449820        2.41425064562754        0.23835333639605
N           -1.18098625141893        1.20484061636865        0.27516928240657
C           -1.92529225258106        0.03183460287775        0.17593166490320
O           -3.13281148442013        0.04276251498406        0.26064756170179
N           -1.23130856884010       -1.14762189107625        0.00132027952272
C           -1.96390976424981       -2.38756167869799       -0.13059272349889
C           -1.93297148724886        2.43264317687651        0.45827008451127
H            4.18392801415340        0.07230986243228       -0.34432303546490
H            3.14231534523138        1.35144424538723       -1.02157493455465
H            3.28790025348868        1.18436370087595        0.72483942510951
H            3.05895639791647       -2.17906464092438       -0.53126566959076
H           -1.28830542917131       -3.20036253198624        0.12016462025753
H           -2.81967387122800       -2.36455589651550        0.54102923153511
H           -2.32287562356636       -2.51180860032825       -1.15324687062469
H           -2.82199982606759        2.22039673618823        1.04696472704212
H           -2.23149204479524        2.84208035404351       -0.50745615468820
H           -1.28562938808360        3.14508028113775        0.96400654138439
24
 energy: -42.153594426440 gnorm: 0.003268100081 xtb: 6.6.0 (conda-forge)
C            3.26571670704339        0.62452683315790       -0.21131407098641
N            2.15530963536212       -0.28292732454015       -0.20992137732239
C            2.15920276694694       -1.61685534720141       -0.37377784136458
N            0.96022167060903       -2.15796430348163       -0.33081401298999
C            0.12356893402236       -1.11657182275785       -0.12760154271970
C            0.83618425491435        0.07146752940725       -0.04348523377887
C            0.20800777016214        1.34342390744844        0.15740450371976
O            0.75735017306706        2.42593175678940        0.23592673022970
N           -1.17688122581832        1.20355435129537        0.26586131166685
C           -1.92498388724169        0.03408588851244        0.17458721425431
O           -3.13310013353607        0.04564604140977        0.26436378062575
N           -1.22963552193676       -1.14213536220567       -0.00562175833073
C           -1.96197523601834       -2.38427912986329       -0.12954537748446
C           -1.93787204485519        2.42720488939793        0.45979173966981
H            4.19053785834022        0.06535496487278       -0.33974779985184
H            3.15451415988597        1.34716035861244       -1.02151745897974
H            3.29378027964583        1.17850874708874        0.72802833675835
H            3.05610338958489       -2.18446055770487       -0.52523083843276
H           -1.28712386450124       -3.19801702545747        0.12224911150768
H           -2.81584054349331       -2.35690577348042        0.54568985002308
H           -2.32566485889458       -2.51202568701685       -1.15100953543560
H           -2.82159574950018        2.20275137334722        1.05330289003834
H           -2.24886784327012        2.83650860518778       -0.50305295730539
H           -1.29685669051853        3.14611708718214        0.96533433648884
24
 energy: -42.153613417311 gnorm: 0.002197573095 xtb: 6.6.0 (conda-forge)
C            3.26810206331538        0.62270599375363       -0.21002366448579
N            2.15556892112478       -0.28259402860532       -0.21082732901209
C            2.15840016212393       -1.61653869413198       -0.37345196456497
N            0.95833075834406       -2.15636079387247       -0.33136974323228
C            0.12309637879208       -1.11334975860988       -0.13085154413349
C            0.83643373951406        0.07366457827702       -0.04725742344043
C            0.20835521213622        1.34478408195433        0.15422474904382
O            0.75490460850094        2.42822915689459        0.23395938812879
N           -1.17735711508900        1.20427461231963        0.26159601576856
C           -1.92514410128632        0.03501385853865        0.17272063408054
O           -3.13311972669822        0.04560358153334        0.26611336586411
N           -1.22991126336212       -1.14082627397867       -0.01016049572537
C           -1.96114646785083       -2.38429957125141       -0.12925626601289
C           -1.93978577375479        2.42679936908003        0.46095045520222
H            4.19216199610367        0.06151594111399       -0.33678661617658
H            3.16048066819276        1.34545010364902       -1.02062641920659
H            3.29618418669348        1.17619787666869        0.72966496502155
H            3.05493932386285       -2.18509875384441       -0.52298638762161
H           -1.28565082383768       -3.19743195446745        0.12370351837596
H           -2.81387090511988       -2.35603572554651        0.54745089697910
H           -2.32613511376166       -2.51458346228070       -1.14988092578331
H           -2.81987602020343        2.20004157748576        1.05859902223060
H           -2.25628348355752        2.83566456746930       -0.50013544652455
H           -1.29857722418277        3.14727371785083        0.96453121522469
24
 energy: -42.153629322269 gnorm: 0.001477219312 xtb: 6.6.0 (conda-forge)
C            3.27099609391541        0.62028685328187       -0.20800864276903
N            2.15548734243860       -0.28167497674945       -0.21212474851004
C            2.15745878331345       -1.61573067094140       -0.37257299284885
N            0.95658232285357       -2.15420808743058       -0.33283343369849
C            0.12225807966695       -1.10955506137673       -0.13565255585667
C            0.83633493955022        0.07657641384112       -0.05299928986762
C            0.20762856217830        1.34615118752355        0.14985900816883
O            0.75187344620473        2.43040266325025        0.23142662930199
N           -1.17922252196966        1.20580029525453        0.25613391251999
C           -1.92579872487124        0.03608387779859        0.17077938795271
O           -3.13332269572955        0.04500088728863        0.26895722142976
N           -1.23082545810472       -1.13956278847623       -0.01728088341083
C           -1.95993322508978       -2.38476976888741       -0.12942217458888
C           -1.94211933188140        2.42702446838315        0.46242479476886
H            4.19330577680864        0.05565463420617       -0.33212707473514
H            3.16869658975655        1.34339283774258       -1.01880785750877
H            3.29872467093493        1.17315976619929        0.73196328517207
H            3.05360701143209       -2.18530200041831       -0.51917705195265
H           -1.28246072921737       -3.19581359588122        0.12542364713052
H           -2.81078063198137       -2.35541363002700        0.54941651892825
H           -2.32679079397072       -2.51980118567836       -1.14851998198272
H           -2.81588634003447        2.19867407139369        1.06818770907634
H           -2.26790252396344        2.83493521171618       -0.49564961426333
H           -1.29781064223973        3.14878859798709        0.96050418754369
24
 energy: -42.153637736981 gnorm: 0.001582068645 xtb: 6.6.0 (conda-forge)
C            3.27283878849781        0.61848953439050       -0.20579397327335
N            2.15516965914605       -0.28072822853526       -0.21337787613506
C            2.15685666443563       -1.61501743017078       -0.37183238989255
N            0.95602098138315       -2.15292072976564       -0.33421857491814
C            0.12139234669534       -1.10744053066483       -0.14054269995371
C            0.83587809373533        0.07863877596874       -0.05867943787235
C            0.20629008128032        1.34713467694424        0.14589567470181
O            0.75035405173341        2.43138990627494        0.22972205493610
N           -1.18123657285145        1.20729985888407        0.25164362820888
C           -1.92667746112774        0.03695512072819        0.16865631136344
O           -3.13363772996102        0.04439979385436        0.27267264715740
N           -1.23188695564253       -1.13860749396518       -0.02454835006232
C           -1.95890365670869       -2.38518609707752       -0.12996446555927
C           -1.94354801946981        2.42743116771957        0.46376776588597
H            4.19348533858525        0.05096413623885       -0.32732006588417
H            3.17509795181542        1.34208957297292       -1.01650453177209
H            3.29948560028523        1.17099426569628        0.73433392062495
H            3.05301996937824       -2.18520049350934       -0.51518069361213
H           -1.27914250245090       -3.19357951211485        0.12678298875569
H           -2.80833511151965       -2.35454106158320        0.55041103235551
H           -2.32739896488865       -2.52546635473013       -1.14755440655398
H           -2.81034836910884        2.19927506269665        1.07951126363443
H           -2.28048283589024        2.83320879620863       -0.49119228818698
H           -1.29419134735171        3.15051726353880        0.95321246605191
24
 energy: -42.153636290760 gnorm: 0.002687704819 xtb: 6.6.0 (conda-forge)
C            3.27471108129735        0.61666080023464       -0.20352456858051
N            2.15484606983870       -0.27976552184068       -0.21465842636769
C            2.15624522681839       -1.61429599188273       -0.37107238395664
N            0.95544982829224       -2.15161451834459       -0.33564674576599
C            0.12050849898012       -1.10529530345810       -0.14554955191127
C            0.83541031653480        0.08073459412763       -0.06448684050481
C            0.20492907993068        1.34813930613155        0.14184909130922
O            0.74882508496088        2.43239149674523        0.22798758770658
N           -1.18327927447132        1.20882599516468        0.24706093945003
C           -1.92757069488655        0.03784399423707        0.16649465653898
O           -3.13395623893899        0.04379629714974        0.27647068271796
N           -1.23296822490302       -1.13762485265274       -0.03198062977797
C           -1.95785630799548       -2.38560231923600       -0.13052604268395
C           -1.94500010173581        2.42783741396612        0.46513891141194
H            4.19367049550920        0.04619391598677       -0.32239532753772
H            3.18162294915556        1.34076672915148       -1.01414613104252
H            3.30023625404997        1.16878977613080        0.73676567117879
H            3.05242996875350       -2.18510189557463       -0.51108584207519
H           -1.27576368218059       -3.19129188009046        0.12816920722103
H           -2.80584635037615       -2.35363057562706        0.55141673359411
H           -2.32802551663080       -2.53124790513520       -1.14657819749668
H           -2.80464190148768        2.19989580433140        1.09114771980493
H           -2.29340745321236        2.83138634333153       -0.48663564777038
H           -1.29046910730262        3.15230829715354        0.94568513453775
24
 energy: -42.153642628103 gnorm: 0.001663819071 xtb: 6.6.0 (conda-forge)
C            3.27363065870925        0.61753796397916       -0.20387312164360
N            2.15492310790189       -0.28018042202053       -0.21433856804760
C            2.15661914757743       -1.61473866659423       -0.37118376531532
N            0.95595322160868       -2.15242151428400       -0.33571686764628
C            0.12076958637727       -1.10671955860468       -0.14456693730198
C            0.83542036184713        0.07963804441325       -0.06308089537680
C            0.20538505621600        1.34779890841685        0.14303711644040
O            0.75024521333305        2.43163198351485        0.22862191675207
N           -1.18227329991140        1.20820814397703        0.24863457133095
C           -1.92721174562469        0.03750016456110        0.16731175605647
O           -3.13368127336588        0.04427765942365        0.27555107035300
N           -1.23260366738047       -1.13777308517595       -0.03021004092639
C           -1.95835524401135       -2.38519167247296       -0.13066844872409
C           -1.94416260446374        2.42746091432014        0.46476003312158
H            4.19345987941607        0.04847637754750       -0.32313195021025
H            3.17905490513109        1.34152538203176       -1.01452558701846
H            3.29869123653914        1.16986615793000        0.73639757586222
H            3.05304945976672       -2.18520606502436       -0.51175409838434
H           -1.27709808010296       -3.19164386265196        0.12766950795910
H           -2.80696294707268       -2.35320017861731        0.55063308416240
H           -2.32803947751694       -2.52955604572599       -1.14719966493023
H           -2.80425785903481        2.20034092986661        1.09047117797607
H           -2.29228424209076        2.82987342121359       -0.48765650003400
H           -1.29017139384807        3.15259501997644        0.94471863554507
24
 energy: -42.153651955808 gnorm: 0.001494111759 xtb: 6.6.0 (conda-forge)
C            3.27105620966641        0.61962520215408       -0.20304920265399
N            2.15508977743303       -0.28115226980520       -0.21383023442375
C            2.15771618026173       -1.61585657682214       -0.37138891951942
N            0.95726864392238       -2.15452004137455       -0.33640652666226
C            0.12131104023122       -1.11021452976688       -0.14458903638380
C            0.83527099084314        0.07693302445305       -0.06195919267126
C            0.20654031348108        1.34695401120163        0.14458549234347
O            0.75479940566019        2.42930255206450        0.22971862900408
N           -1.17951740175389        1.20707644857563        0.25088675011927
C           -1.92610159932954        0.03701044146033        0.16799178162825
O           -3.13269206760933        0.04593011504019        0.27475931038349
N           -1.23192810293543       -1.13752548709145       -0.02920038330880
C           -1.95982490277062       -2.38393156608123       -0.13179065824555
C           -1.94233986979766        2.42627495302218        0.46446166003705
H            4.19328430501520        0.05398814219130       -0.32173171251297
H            3.17421322357801        1.34337359387812       -1.01392529936999
H            3.29343509282217        1.17242533789850        0.73724393068186
H            3.05493184277608       -2.18549570940694       -0.51202998907371
H           -1.28071952980085       -3.19194079124229        0.12718640116299
H           -2.81001882174468       -2.35070187272592        0.54784043911385
H           -2.32825742207874       -2.52699881768890       -1.14927149810275
H           -2.79676551857560        2.20275467978819        1.09973210319670
H           -2.30078475623297        2.82017632517373       -0.48803303548975
H           -1.28586703306138        3.15661283510410        0.93269919074700
24
 energy: -42.153659894783 gnorm: 0.001635029705 xtb: 6.6.0 (conda-forge)
C            3.27124803309628        0.61939685290597       -0.20120218374457
N            2.15513769741699       -0.28116339299366       -0.21402234323772
C            2.15788968576180       -1.61592714165477       -0.37097561286142
N            0.95727853861851       -2.15442071657534       -0.33755429720496
C            0.12124648467435       -1.11000503187275       -0.14707720573865
C            0.83517673592030        0.07710334319386       -0.06430568150056
C            0.20675431809981        1.34711805176217        0.14337840943555
O            0.75579130047317        2.42902219763347        0.22941530367366
N           -1.17920006259923        1.20752719561632        0.24934475584351
C           -1.92579433656356        0.03734457998288        0.16714478964256
O           -3.13212660423270        0.04658757342603        0.27569844709317
N           -1.23216880388734       -1.13696666289177       -0.03271591211034
C           -1.96008420464347       -2.38360347751352       -0.13301454434379
C           -1.94279410559774        2.42587454939300        0.46514873053832
H            4.19359895817883        0.05358040343587       -0.31799694004534
H            3.17619000189561        1.34312043471858       -1.01227798173595
H            3.29185985560074        1.17220880483136        0.73909818041282
H            3.05521244884739       -2.18567029538876       -0.51021034944504
H           -1.28115009344042       -3.19119689981355        0.12776384793588
H           -2.81036972156174       -2.34888920194819        0.54638364738257
H           -2.32820306998579       -2.52866607307476       -1.15026538288322
H           -2.78805113022266        2.20470321199091        1.11377923351700
H           -2.31572402258004        2.81201202911544       -0.48516255747319
H           -1.28161790326910        3.16100966572120        0.91952564684970
24
 energy: -42.153397933800 gnorm: 0.015709263610 xtb: 6.6.0 (conda-forge)
C            3.27272080138806        0.61787122174734       -0.18450185946642
N            2.15609495666479       -0.28190561915453       -0.21389864338921
C            2.15965439211081       -1.61673346764912       -0.36838837897825
N            0.95784015305418       -2.15405771359546       -0.34560642175572
C            0.12131411666411       -1.10849171795623       -0.16630324069489
C            0.83506534057444        0.07796099540778       -0.08095106927482
C            0.21015020236205        1.34810705556876        0.13610739862350
O            0.76631138107334        2.42609682569840        0.23093669865642
N           -1.17525137518432        1.21141771114065        0.23823302410453
C           -1.92235679514113        0.04066899614816        0.15733016665305
O           -3.12705560924947        0.05394866755589        0.28136991024495
N           -1.23383526241531       -1.13284511210187       -0.06092511776431
C           -1.96316711111493       -2.38037450982206       -0.14566713673627
C           -1.94698904408793        2.42171237050660        0.47104579412345
H            4.19669400295792        0.05139765620245       -0.28495928685182
H            3.19160872176343        1.34034755618406       -0.99802757929716
H            3.27769256348955        1.17202152625651        0.75510223445298
H            3.05753921714411       -2.18755156432408       -0.49712097973069
H           -1.28812389534412       -3.18580871146373        0.13283280652748
H           -2.81733256546644       -2.33219748318960        0.52776465642639
H           -2.32407758491883       -2.54097339390941       -1.16279049246157
H           -2.70018876516880        2.22742368918213        1.25121748812189
H           -2.46246476210632        2.72614002520024       -0.45732128216381
H           -1.24174307904921        3.20592499636716        0.78442131063031
24
 energy: -42.153692187742 gnorm: 0.003031133030 xtb: 6.6.0 (conda-forge)
C            3.27235305789359        0.61841518256193       -0.19295412660669
N            2.15562285449943       -0.28141881048937       -0.21405390421755
C            2.15873113200780       -1.61608234108637       -0.36989157415788
N            0.95742762470173       -2.15380335457852       -0.34188205286005
C            0.12134329919303       -1.10857928594709       -0.15682656971125
C            0.83523072177639        0.07790266039465       -0.07266916042961
C            0.20852117317194        1.34742842616889        0.14035292978583
O            0.76061306380482        2.42755324670260        0.23081910073628
N           -1.17753755739983        1.20969861737532        0.24381518625479
C           -1.92401946417023        0.03905489003328        0.16182063127378
O           -3.12946828484071        0.05017230662323        0.27790864574840
N           -1.23313666182873       -1.13515522430715       -0.04729910329688
C           -1.96163036475760       -2.38234770004334       -0.13931722146461
C           -1.94527778938045        2.42385845948532        0.46838993915397
H            4.19519815436446        0.05179725113472       -0.30114154579058
H            3.18488325185721        1.34122462056069       -1.00547188925699
H            3.28517890828896        1.17209105465832        0.74673823347971
H            3.05607756446552       -2.18645948031241       -0.50413967500265
H           -1.28473550265176       -3.18867249068170        0.13132810672823
H           -2.81386618867420       -2.34049119235405        0.53688504078121
H           -2.32559845738301       -2.53585771801957       -1.15646731015667
H           -2.74330335828125        2.21795942250011        1.18182986397419
H           -2.38874724039976        2.76851126839895       -0.46917516191203
H           -1.26375993625739        3.18330019122157        0.85130161694705
24
 energy: -42.153704069965 gnorm: 0.001986838819 xtb: 6.6.0 (conda-forge)
C            3.27239037639594        0.61842210274972       -0.19328211829240
N            2.15577635295370       -0.28158584622179       -0.21343454466172
C            2.15863420398265       -1.61614888947209       -0.36995210354167
N            0.95726380393698       -2.15371428699497       -0.34190984577781
C            0.12142797991378       -1.10851669129370       -0.15555644214316
C            0.83545321251307        0.07786356703280       -0.07100009190722
C            0.20894760652072        1.34746548251593        0.14183343428573
O            0.76073055652356        2.42768313331998        0.23256458484764
N           -1.17727881048741        1.20959778799849        0.24493793966856
C           -1.92388618740558        0.03908878295645        0.16244069111597
O           -3.12946592716252        0.05064479424495        0.27611726231430
N           -1.23296560414070       -1.13532068810538       -0.04575249848660
C           -1.96166534968246       -2.38214761206303       -0.13974973746289
C           -1.94534328821174        2.42372784619931        0.46799808592198
H            4.19526850294976        0.05189051366300       -0.30155649591690
H            3.18449035801858        1.34077834156723       -1.00617968185743
H            3.28546001357487        1.17260711124109        0.74610018674673
H            3.05582367902088       -2.18660544955004       -0.50509420321010
H           -1.28542601446914       -3.18885393153404        0.13128167906711
H           -2.81486244512310       -2.34039201429435        0.53522618231169
H           -2.32424192215636       -2.53492417987584       -1.15750810996086
H           -2.74031394093344        2.21912658272162        1.18361372071115
H           -2.39164421921332        2.76516967475293       -0.46815309446829
H           -1.26447293731873        3.18424386844172        0.84691520069617
24
 energy: -42.153730494704 gnorm: 0.001882450052 xtb: 6.6.0 (conda-forge)
C            3.27274397710301        0.61833798895072       -0.19394934212226
N            2.15660244677480       -0.28238173297682       -0.21023617636421
C            2.15837641650784       -1.61646253764445       -0.37053319646736
N            0.95686386956577       -2.15364064427723       -0.34095753064451
C            0.12186198770229       -1.10843702825295       -0.15019768971484
C            0.83659817811337        0.07744502531161       -0.06334267183678
C            0.21095494242833        1.34744036039476        0.14839100280158
O            0.76214799161591        2.42776222680224        0.24092055910148
N           -1.17595577840301        1.20935665643237        0.24926864693013