25
 energy: -37.445306613462 gnorm: 0.139048444219 xtb: 6.6.0 (conda-forge)
C           -1.53870000000000        1.99680000000000        0.38490000000000
N           -1.47580000000000        0.55400000000000        0.17380000000000
C           -0.46940000000000       -0.33270000000000        0.73790000000000
C           -0.91910000000000       -1.76940000000000        0.36510000000000
C           -2.13400000000000       -1.64160000000000       -0.56980000000000
C           -2.42120000000000       -0.19370000000000       -0.56310000000000
O           -3.39900000000000        0.33020000000000       -1.16010000000000
C            0.90100000000000       -0.01050000000000        0.18000000000000
C            1.11410000000000        0.09850000000000       -1.20560000000000
N            2.35440000000000        0.37660000000000       -1.68880000000000
C            3.41980000000000        0.55320000000000       -0.86360000000000
C            3.25860000000000        0.44710000000000        0.51860000000000
C            1.99570000000000        0.16160000000000        1.04060000000000
H           -0.70090000000000        2.33010000000000        1.03340000000000
H           -2.49870000000000        2.26140000000000        0.87540000000000
H           -1.46690000000000        2.51930000000000       -0.59170000000000
H           -0.47690000000000       -0.22210000000000        1.84560000000000
H           -0.11030000000000       -2.35300000000000       -0.12830000000000
H           -1.21840000000000       -2.31510000000000        1.28690000000000
H           -1.87730000000000       -1.97040000000000       -1.59960000000000
H           -3.00370000000000       -2.21460000000000       -0.18260000000000
H            0.29560000000000       -0.03870000000000       -1.90000000000000
H            4.39310000000000        0.77360000000000       -1.28120000000000
H            4.10490000000000        0.58350000000000        1.17930000000000
H            1.87320000000000        0.07600000000000        2.11310000000000
25
 energy: -37.461764406748 gnorm: 0.048511592994 xtb: 6.6.0 (conda-forge)
C           -1.54352572005240        1.96075818668068        0.37301854035989
N           -1.49134574917564        0.52951311456301        0.15804481890761
C           -0.46790359480122       -0.33300847825884        0.72930258070371
C           -0.91249773344261       -1.77300458948410        0.37598157437306
C           -2.11880765171043       -1.62020807522977       -0.56038464979618
C           -2.43183509760008       -0.16053003546613       -0.56971518126950
O           -3.37673328072616        0.36415630518636       -1.13935833438351
C            0.90985086181215       -0.01150731301496        0.18932446424890
C            1.14504610816763        0.10314000728501       -1.18270602322629
N            2.34731937510731        0.37457618619743       -1.68293710765489
C            3.37908066037688        0.54431683105320       -0.85946848325524
C            3.24327926670909        0.44431754493119        0.51890181568108
C            1.99224016916598        0.16365544922105        1.04535642307119
H           -0.71264033506137        2.27668143468632        1.01206246300419
H           -2.48735053235959        2.23972996492130        0.85626437725616
H           -1.47408354982889        2.49490224872804       -0.58126943928869
H           -0.45821327603962       -0.21038148837164        1.82738507980365
H           -0.10101452849969       -2.33266001776880       -0.10206017269630
H           -1.19669245076923       -2.31291243391042        1.28596668740883
H           -1.89507920415404       -1.95292970956193       -1.58060339993741
H           -2.98750401990627       -2.18762550338288       -0.20894910291319
H            0.33709932821721       -0.02402176937446       -1.88934447023792
H            4.34117167390819        0.76414461243220       -1.30043605824878
H            4.09502117122757        0.58198803503898        1.17066869936900
H            1.86521810943522        0.07700949289915        2.11515489872064
25
 energy: -37.464133472604 gnorm: 0.012563113479 xtb: 6.6.0 (conda-forge)
C           -1.53779645274038        1.93506785253316        0.36572361567071
N           -1.49499866275493        0.51076372991086        0.15274579179124
C           -0.46738114860170       -0.33016737763313        0.73486423718241
C           -0.90927485804737       -1.76925564340136        0.37904056351166
C           -2.10781590665286       -1.61515078716215       -0.55865163951707
C           -2.43235125786359       -0.14006250652844       -0.57226594617523
O           -3.36238988602877        0.39015297535856       -1.12870840656334
C            0.90808382936820       -0.00629328801188        0.19911609546179
C            1.15122031504096        0.11170064399559       -1.16765078582411
N            2.33542225485349        0.37517558473260       -1.67965843192555
C            3.35392283733812        0.53784197710567       -0.85775561660510
C            3.23593219419836        0.44159404802087        0.52072404842869
C            1.98859824895543        0.16519541594696        1.05317815028936
H           -0.70849434817109        2.23441869210760        1.00263717817460
H           -2.47983664747371        2.21358818277345        0.84191582740956
H           -1.46887881035788        2.46616832231772       -0.58472463856205
H           -0.45243381441568       -0.18816383645056        1.82574932248689
H           -0.09595698501896       -2.31540461038631       -0.09525077550989
H           -1.19115593794074       -2.30601441668840        1.28240867153453
H           -1.89078324690101       -1.94131363529702       -1.57589938147798
H           -2.97984876813597       -2.17542696126920       -0.22210488726490
H            0.34815041527878       -0.01185559905766       -1.88217644461987
H            4.30801404402723        0.75586516725935       -1.31941941558486
H            4.09251772116244        0.58087797008924        1.16314481908121
H            1.85763487088162        0.08079809973447        2.12321804860731
25
 energy: -37.464300371141 gnorm: 0.004825327959 xtb: 6.6.0 (conda-forge)
C           -1.53066888621438        1.93149207069169        0.36404043258038
N           -1.49288500071892        0.50641607555421        0.15485278985532
C           -0.46924372094209       -0.33169644009814        0.73963898545294
C           -0.90929468178673       -1.77119967408303        0.38164507382964
C           -2.10376035174056       -1.61789689464598       -0.56176781903311
C           -2.42971795893563       -0.13730348464898       -0.57375239487191
O           -3.35963852837219        0.39843764447499       -1.13159996264209
C            0.90417394334377       -0.00592213527652        0.20390160805201
C            1.14210288619556        0.11419831003318       -1.16318502880152
N            2.32605201863293        0.37804883227092       -1.67944741041105
C            3.34796636937549        0.53850594633767       -0.85843536713148
C            3.23396115356197        0.44299775092257        0.52048372664451
C            1.98710996572775        0.16671848771525        1.05622786933457
H           -0.70080402807795        2.22671148026678        1.00162611485065
H           -2.47438019062682        2.21328528360931        0.83615212261215
H           -1.45811806358128        2.45804464903099       -0.58910124186065
H           -0.45699991326071       -0.18590133831640        1.82942283094960
H           -0.09039768672214       -2.31290173618732       -0.08975068599524
H           -1.19177201208975       -2.30928655792465        1.28481264442096
H           -1.88082110051166       -1.93855299966262       -1.57950949862304
H           -2.97843303594893       -2.17682216783363       -0.22953802720938
H            0.33621456137146       -0.00436478457532       -1.87606169273961
H            4.30004684555392        0.75304926693238       -1.32624561010402
H            4.09294567058861        0.58097502889896        1.15901823216783
H            1.85646174517828        0.08306738651369        2.12677230867251
25
 energy: -37.464371880161 gnorm: 0.002055293531 xtb: 6.6.0 (conda-forge)
C           -1.52188694908393        1.93039133840637        0.36182586588310
N           -1.49176973856937        0.50306454912520        0.15939445240826
C           -0.47222643864856       -0.33316832981367        0.74682142781883
C           -0.90949082436947       -1.77355632676757        0.38534342125072
C           -2.09775329292973       -1.62169666442963       -0.56568307137706
C           -2.42463876905266       -0.13611900233652       -0.57522468835606
O           -3.35169380350880        0.40204505439793       -1.13729712165310
C            0.89956631331509       -0.00531700225074        0.21071638775691
C            1.12947894674468        0.12000165967141       -1.15699864207598
N            2.31267378298892        0.38316057431310       -1.67859621084974
C            3.33959252398489        0.53876946416046       -0.86038821979761
C            3.23113276174309        0.44323798672801        0.51879459624798
C            1.98604472559041        0.16682246132499        1.05955243015454
H           -0.69239893360274        2.22294342845990        1.00085142730300
H           -2.46656545932107        2.21959982062479        0.82818053176647
H           -1.44240642002562        2.45081035895985       -0.59460650084753
H           -0.46371461335574       -0.18744343990862        1.83641462696670
H           -0.08657671954947       -2.31349385475183       -0.08231512182716
H           -1.19656122365794       -2.31397983344522        1.28631618856812
H           -1.86491213717898       -1.93605381405358       -1.58325810046401
H           -2.97479482431466       -2.18096879742302       -0.24057644932507
H            0.31996756844320        0.00515148621095       -1.86667132748270
H            4.28852363381203        0.75113415511043       -1.33535598328268
H            4.09323956900131        0.58143023578077        1.15243066741472
H            1.85727032154509        0.08333449190626        2.13052941379935
25
 energy: -37.464400789824 gnorm: 0.002641724245 xtb: 6.6.0 (conda-forge)
C           -1.51676235917471        1.93059915910701        0.35999395171973
N           -1.49269362912748        0.50164272584256        0.16377335602166
C           -0.47414088020608       -0.33441698309971        0.75186501307191
C           -0.90990061145552       -1.77510703565508        0.38842231328806
C           -2.09365882611895       -1.62306937209045       -0.56813708112421
C           -2.42158642414563       -0.13628005556151       -0.57661648723245
O           -3.34637209238158        0.40128213608773       -1.14272978507448
C            0.89715889147795       -0.00549570119305        0.21524794737840
C            1.12194016039133        0.12339813170934       -1.15302611091871
N            2.30371903066968        0.38735239673367       -1.67775600209392
C            3.33351104975823        0.54064185913394       -0.86221232720740
C            3.22909295612544        0.44323246812523        0.51698470136059
C            1.98584791769838        0.16576837559649        1.06130669325521
H           -0.68771247891517        2.22193014294863        1.00026688088581
H           -2.46132011466569        2.22644325308021        0.82222837657368
H           -1.43141796226846        2.44618350696660       -0.59873129830304
H           -0.46690919227370       -0.19089309243200        1.84191687850112
H           -0.08481172623231       -2.31530630424547       -0.07542014955659
H           -1.20105873086901       -2.31566048009858        1.28817932905572
H           -1.85433871296476       -1.93367290327133       -1.58541830458723
H           -2.97164906459784       -2.18383889057125       -0.24901229321367
H            0.30953977408202        0.01251927908340       -1.85997592740727
H            4.28066302972439        0.75126091808527       -1.34101561580494
H            4.09346463439605        0.58084180302917        1.14764822694896
H            1.85949536107341        0.08074466268919        2.13241771446307
25
 energy: -37.464434479137 gnorm: 0.002297893761 xtb: 6.6.0 (conda-forge)
C           -1.51128884130753        1.93105735930506        0.35742932034720
N           -1.49553420542134        0.50024250235927        0.17088065384742
C           -0.47612198795411       -0.33615722557059        0.75779609228287
C           -0.91075855313324       -1.77688295684298        0.39254574540990
C           -2.08882177008948       -1.62381380721273       -0.57071984797931
C           -2.41863900845062       -0.13739146742525       -0.57755464745646
O           -3.34041058690925        0.39850898607074       -1.14926781020430
C            0.89450182506566       -0.00514922246619        0.22009390335228
C            1.11373785119544        0.12906421021260       -1.14880598783362
N            2.29363869642803        0.39318476178024       -1.67680910269877
C            3.32663510091567        0.54272733359246       -0.86469155691830
C            3.22678458499535        0.44232495381020        0.51445269624771
C            1.98575944955504        0.16358640410596        1.06280454717780
H           -0.68266506405957        2.22137558389353        0.99893250869297
H           -2.45504687534903        2.23638765891852        0.81445260060414
H           -1.41844008392434        2.43974904659691       -0.60437321456319
H           -0.46875392841230       -0.19565078147069        1.84849929358719
H           -0.08367690617098       -2.31855946351114       -0.06589965665862
H           -1.20805237566797       -2.31648868171772        1.29086701646112
H           -1.84194341021993       -1.92991810532046       -1.58765876788620
H           -2.96735201497355       -2.18774249737143       -0.25979168732551
H            0.29830558116907        0.02116504152627       -1.85242748868385
H            4.27169016386306        0.75373553233554       -1.34672973838214
H            4.09354257989241        0.57923145457000        1.14216668023716
H            1.86300977896353        0.07551337983192        2.13400844834251
25
 energy: -37.464467981620 gnorm: 0.001673513309 xtb: 6.6.0 (conda-forge)
C           -1.50557132215068        1.93097044009893        0.35450203225524
N           -1.49985013820700        0.49843983932218        0.18071541831689
C           -0.47807865080034       -0.33825586659789        0.76490957304295
C           -0.91245002701130       -1.77866498727552        0.39873915586699
C           -2.08272453112070       -1.62397643960754       -0.57359819799911
C           -2.41497898391053       -0.13899872071744       -0.57846175519955
O           -3.33249090286558        0.39572156137372       -1.15743468362413
C            0.89133045028510       -0.00537108799183        0.22473795193286
C            1.10498781213365        0.13498375575050       -1.14472781447669
N            2.28219069568430        0.40122378383784       -1.67631912579767
C            3.31841642427037        0.54726254434059       -0.86803817071910
C            3.22413932041054        0.44093573096609        0.51098056494255
C            1.98565487967074        0.15959830818942        1.06364159623721
H           -0.67813646750144        2.22035552328406        0.99810450802218
H           -2.44879309954868        2.24790153582866        0.80402540653506
H           -1.40312534986229        2.43091674710743       -0.61100759026813
H           -0.46896631992549       -0.19969284750964        1.85599284363116
H           -0.08316685591542       -2.32335864968911       -0.05181217424224
H           -1.21871765556887       -2.31553059411136        1.29559896026465
H           -1.82629800658666       -1.92491815786305       -1.58987741794885
H           -2.96210130323291       -2.19226010708189       -0.27354876624388
H            0.28585613036087        0.03183187557642       -1.84462352639647
H            4.26166570445833        0.75885126463759       -1.35294461129316
H            4.09360559038289        0.57533506147379        1.13569211990542
H            1.86770260655110        0.06679948665806        2.13495370325581
25
 energy: -37.464505716704 gnorm: 0.001487171130 xtb: 6.6.0 (conda-forge)
C           -1.49911199688134        1.92988639817116        0.35133643713521
N           -1.50617399855450        0.49574479823835        0.19525731128032
C           -0.48020578812562       -0.34079273481173        0.77455210819922
C           -0.91597989228379       -1.78058923158709        0.40974614080848
C           -2.07341307364410       -1.62378422523862       -0.57753149030665
C           -2.40880924563420       -0.14105949142625       -0.58030063924176
O           -3.31943177222377        0.39392536058336       -1.16972227652544
C            0.88666328905492       -0.00583814870227        0.22915794208658
C            1.09326385480657        0.14472495709998       -1.14059290283940
N            2.26708692231347        0.41392183631904       -1.67686926008030
C            3.30777711996546        0.55334506582200       -0.87345501940270
C            3.22106618995302        0.43701625183729        0.50528579123739
C            1.98559326288337        0.15204156070139        1.06305441163443
H           -0.67538838232346        2.21858486754454        1.00003531735892
H           -2.44319662741956        2.26176048919402        0.78760489890008
H           -1.38183751639946        2.41787210249963       -0.61882544341624
H           -0.46667324012606       -0.20234980284419        1.86548506432842
H           -0.08375655470019       -2.33188279065237       -0.02697823973088
H           -1.23747234837851       -2.31096605091084        1.30515840944775
H           -1.80201016604993       -1.91821530695190       -1.59209886900282
H           -2.95451951077538       -2.19798706279989       -0.29379663967400
H            0.27005131426212        0.04548583610840       -1.83615185590198
H            4.24833566410789        0.77061638298861       -1.36108844328663
H            4.09372149125232        0.56729372647810        1.12649833402194
H            1.87452100492071        0.05134521233931        2.13443891297005
25
 energy: -37.464537075020 gnorm: 0.001579865309 xtb: 6.6.0 (conda-forge)
C           -1.49746258485269        1.92862981143469        0.35085912876089
N           -1.50942585289609        0.49431884438232        0.20340433288440
C           -0.48086757532240       -0.34129639793680        0.77986779449111
C           -0.91951941404926       -1.78085773035143        0.41942991536256
C           -2.06643361199480       -1.62367191782540       -0.57992189387513
C           -2.40350245076812       -0.14187038641947       -0.58255902647155
O           -3.30879828490785        0.39474807325091       -1.17880235217322
C            0.88413818664322       -0.00765345590724        0.22935097764290
C            1.08722834188947        0.14905474685262       -1.14003215445000
N            2.25893738045906        0.42322487760892       -1.67851971472471
C            3.30162651104143        0.56004053361646       -0.87750824497606
C            3.21982069916664        0.43342884364400        0.50071115346114
C            1.98607042013374        0.14475035145080        1.06049923261505
H           -0.67949062166594        2.21775072544650        1.00658094014371
H           -2.44459296793230        2.26646073743352        0.77523656826825
H           -1.36863804674668        2.41094761673221       -0.62060860354992
H           -0.46293961206477       -0.20009985481861        1.87011456881098
H           -0.08589920181940       -2.33959161819357       -0.00501150225629
H           -1.25374292772520       -2.30358319570881        1.31472916564081
H           -1.78347342106118       -1.91524260480069       -1.59214093263083
H           -2.94920594334306       -2.20062732343148       -0.30722224199550
H            0.26178510439375        0.05463756037835       -1.83395305410940
H            4.24116247848129        0.78034875983285       -1.36617906339901
H            4.09440031342395        0.55844640607064        1.12018791567893
H            1.87892308151718        0.03780659725877        2.13168709085086
25
 energy: -37.464584130437 gnorm: 0.001938957231 xtb: 6.6.0 (conda-forge)
C           -1.49951566057764        1.92731307521332        0.35271590761768
N           -1.51194541437997        0.49324357892256        0.21070148198009
C           -0.48067179255678       -0.34043289099383        0.78462512522210
C           -0.92486545677697       -1.78010525180616        0.43347836640297
C           -2.05717633474429       -1.62385194650466       -0.58267496416813
C           -2.39615786359186       -0.14258457939045       -0.58674406036347
O           -3.29543944762111        0.39618504084794       -1.19061170642616
C            0.88195411229980       -0.00947794272593        0.22663640951267
C            1.08121776407561        0.15642191581478       -1.14184423025230
N            2.25178713312859        0.43439314521373       -1.68199935183753
C            3.29706830434024        0.56480876313142       -0.88331561161883
C            3.22007239233238        0.42597527468328        0.49413633323871
C            1.98763614517320        0.13432461221265        1.05508118321280
H           -0.69303951477001        2.21762007073536        1.02231485084238
H           -2.45394369854076        2.26746295841140        0.75865770787177
H           -1.35295184511835        2.40660356725031       -0.61786164117297
H           -0.45612903884443       -0.19361007467401        1.87366296031885
H           -0.08991970887809       -2.35089389411024        0.02750230610236
H           -1.27691855826194       -2.28950844309366        1.32995616918738
H           -1.75850869026720       -1.91305884380194       -1.59101682152381
H           -2.94263737190024       -2.20310757844237       -0.32369273618168
H            0.25514310446554        0.06377863305593       -1.83524748341433
H            4.23456921863880        0.79466956122009       -1.37220168834162
H            4.09628493323763        0.54518181670163        1.11220001490916
H            1.88418728913784        0.01874943212893        2.12574147888185
25
 energy: -37.464655258512 gnorm: 0.002902861182 xtb: 6.6.0 (conda-forge)
C           -1.50633087111688        1.92683540879101        0.35720629747660
N           -1.51425526194351        0.49281423749617        0.21787088815715
C           -0.47981092487472       -0.33723107935397        0.79032463102500
C           -0.93263855091203       -1.77764776262028        0.45531709678348
C           -2.04203168896536       -1.62450273797445       -0.58670385089691
C           -2.38552003262851       -0.14390965131554       -0.59342808648659
O           -3.27772564558782        0.39514770549686       -1.20773034130511
C            0.88029390287296       -0.01292480116480        0.22142530812286
C            1.07421608723183        0.16477125617351       -1.14582308905182
N            2.24307023167796        0.44956452170081       -1.68785976314766
C            3.29148687799998        0.57277541539530       -0.89260348501431
C            3.22167913627586        0.41419922301174        0.48356872091826
C            1.99129765442889        0.11781424955993        1.04599878337507
H           -0.72236118211745        2.21882575646405        1.05359263446313
H           -2.47503316341301        2.26556063082254        0.73142606755461
H           -1.32836187570373        2.40639875150524       -0.60892109125996
H           -0.44586482587449       -0.18083352000729        1.87753832907554
H           -0.09647351655458       -2.36773011211902        0.07888427087490
H           -1.31243357581755       -2.26467565600444        1.35388515578036
H           -1.71860670102034       -1.91004883945400       -1.58877549353785
H           -2.93116554254810       -2.20786588376461       -0.34891019019563
H            0.24641754283321        0.08053125049875       -1.83871578908445
H            4.22694172597983        0.80995106966770       -1.38236984819452
H            4.10101345972816        0.52259671315558        1.09927231813366
H            1.89229674004941       -0.01031614596073        2.11573052643413
25
 energy: -37.464724774200 gnorm: 0.003750290633 xtb: 6.6.0 (conda-forge)
C           -1.51466377576252        1.92707863193776        0.36211769910339
N           -1.51561162855482        0.49331744596677        0.22173770958452
C           -0.47904877141482       -0.33271053601687        0.79491646237683
C           -0.93881713477202       -1.77402240699264        0.47489696078623
C           -2.02652452316977       -1.62516240251892       -0.59042744810595
C           -2.37599790273477       -0.14519458684551       -0.59974643871730
O           -3.26377675079619        0.39176263086322       -1.22208643378600
C            0.87912034232926       -0.01470195729559        0.21712817344290
C            1.06768945142601        0.17375255823067       -1.14900494982058
N            2.23536934994235        0.46147703682280       -1.69320541065170
C            3.28736083869467        0.57550421364817       -0.90152421152813
C            3.22391110762890        0.40162801649378        0.47334853846933
C            1.99517044704360        0.10334214050002        1.03771328272939
H           -0.75532222952184        2.22041646112507        1.08607425902855
H           -2.49750732174140        2.26117534448424        0.70413921792794
H           -1.30542588182473        2.40979137378281       -0.59692626503293
H           -0.43808264505264       -0.16721164093262        1.88033913699670
H           -0.10213503827092       -2.38070993778495        0.12599045033593
H           -1.34338073285517       -2.24033402231797        1.37434891740716
H           -1.67963031085014       -1.90660525686131       -1.58612567505188
H           -2.91766182127628       -2.21354856780992       -0.37266181431700
H            0.23802394222763        0.09730828055303       -1.84078173400706
H            4.22064196538957        0.81868738132616       -1.39280577292642
H            4.10633112922334        0.50073730774892        1.08623327598452
H            1.90006789469271       -0.03567750810702        2.10651206977150
25
 energy: -37.464820780010 gnorm: 0.007463586999 xtb: 6.6.0 (conda-forge)
C           -1.53147809949410        1.92832040001725        0.37149816155574
N           -1.51752737901612        0.49496561507417        0.22679892163792
C           -0.47793733862779       -0.32340653886390        0.80341523456138
C           -0.94893773771603       -1.76636415620362        0.50978753224658
C           -1.99658518282011       -1.62653948237362       -0.59737014202423
C           -2.35916842855475       -0.14809126542196       -0.61094163058251
O           -3.24062249600818        0.38298195545608       -1.24731973672160
C            0.87715168998425       -0.01702939407973        0.21069504722391
C            1.05518157729340        0.19062350032855       -1.15363465477694
N            2.22083423029164        0.48109500241986       -1.70267804296338
C            3.27996808641695        0.57759207976613       -0.91827831610251
C            3.22827774163559        0.37769672944835        0.45414220028839
C            2.00257884391104        0.07759523158028        1.02319407462296
H           -0.82044660934087        2.22319138235714        1.14696387460118
H           -2.53970848946782        2.25292438176956        0.65220706425739
H           -1.26249627746523        2.41892320949409       -0.57160970560652
H           -0.42628900977444       -0.14148507329161        1.88560757836757
H           -0.11143086592089       -2.40083750874447        0.21090284989669
H           -1.39744016165967       -2.19570727985730        1.40922919690767
H           -1.60594871716997       -1.89873404627812       -1.58087624076609
H           -2.89003359300652       -2.22565293624603       -0.41736257354278
H            0.22119135442657        0.12950479946964       -1.84212057067568
H            4.20943643052257        0.82809490864813       -1.41331284701723
H            4.11680895639686        0.46007610203612        1.06098036986748
H            1.91472147516362       -0.07963761650486        2.09028235474456
25
 energy: -37.464921130056 gnorm: 0.006133121859 xtb: 6.6.0 (conda-forge)
C           -1.54116853888383        1.92971164708934        0.37591283730618
N           -1.51691135338767        0.49682194494748        0.22498296500724
C           -0.47772260926566       -0.31763640365575        0.80663528440385
C           -0.95203584060153       -1.76122127643605        0.52341438323960
C           -1.98174793180610       -1.62727921500322       -0.60003560565583
C           -2.35180196521776       -0.14941198918231       -0.61652305891474
O           -3.23226794091987        0.37667149280343       -1.25808829003040
C            0.87673245433057       -0.01715160353482        0.20939109391610
C            1.04982722366495        0.19757550659892       -1.15416328587489
N            2.21477940079758        0.48649878303355       -1.70600318083460
C            3.27735119789003        0.57435510174547       -0.92536858938387
C            3.23057606159791        0.36590197984875        0.44577817899993
C            2.00606102029222        0.06726181232761        1.01777360745228
H           -0.85314255341397        2.22514684473104        1.17030911080895
H           -2.55683380740913        2.24636607662102        0.63222941295830
H           -1.25013479535058        2.42779527273061       -0.55539093069244
H           -0.42433113207782       -0.12831294389942        1.88730408041469
H           -0.11558110048570       -2.40432984176547        0.24496641374247
H           -1.41697099860460       -2.17606950697282        1.42021131256056
H           -1.57211584172273       -1.89509795837464       -1.57676194910585