20
 energy: -32.759259185272 gnorm: 0.121055141450 xtb: 6.6.0 (conda-forge)
C            3.74770000000000       -0.60640000000000       -0.12090000000000
C            2.34800000000000       -0.40810000000000        0.36220000000000
O            2.08480000000000       -0.58680000000000        1.58200000000000
N            1.34170000000000        0.07330000000000       -0.54200000000000
C           -0.06220000000000        0.12500000000000       -0.23450000000000
C           -0.67520000000000       -0.85240000000000        0.57120000000000
C           -2.04730000000000       -0.79100000000000        0.83460000000000
C           -2.82440000000000        0.23460000000000        0.28790000000000
C           -2.22400000000000        1.19880000000000       -0.53220000000000
C           -0.85260000000000        1.13890000000000       -0.79780000000000
O           -4.18960000000000        0.28380000000000        0.56040000000000
H            4.29280000000000       -1.30400000000000        0.54980000000000
H            3.73720000000000       -1.03390000000000       -1.14540000000000
H            4.27460000000000        0.37010000000000       -0.13750000000000
H            1.66190000000000        0.48640000000000       -1.44740000000000
H           -0.10350000000000       -1.67660000000000        0.97580000000000
H           -2.50890000000000       -1.54700000000000        1.45720000000000
H           -2.81870000000000        1.99280000000000       -0.96570000000000
H           -0.40220000000000        1.88920000000000       -1.43540000000000
H           -4.77990000000000        1.01330000000000        0.17780000000000
20
 energy: -32.775320110779 gnorm: 0.045366784483 xtb: 6.6.0 (conda-forge)
C            3.70620363674837       -0.59070516521359       -0.14345089623530
C            2.31314341089176       -0.38604988769586        0.38325074342150
O            2.04313724646341       -0.60681319533548        1.55397127511322
N            1.33724026980747        0.05476792069271       -0.51172477079911
C           -0.05633463070125        0.11811499453531       -0.23099400847512
C           -0.67755269591706       -0.84483079425392        0.56452908883264
C           -2.03872230719211       -0.78071716120324        0.82408087553691
C           -2.81241103460689        0.24061387737329        0.28254767487559
C           -2.20538951434145        1.19146756129282       -0.53402660226067
C           -0.84107148264631        1.12845121217760       -0.79001475334373
O           -4.15754192014118        0.26291415800625        0.56649342144673
H            4.24228624379682       -1.26934107017041        0.52619026916371
H            3.72013986386732       -1.01017354771988       -1.15402166081414
H            4.24877500157946        0.35966686142051       -0.14988354112776
H            1.65254239247750        0.45861856265537       -1.39414297171877
H           -0.10170042329158       -1.65257326022012        0.98761551021919
H           -2.50447370063805       -1.53031646026405        1.44627068553361
H           -2.79916573535171        1.98460165281163       -0.96835352572088
H           -0.39059676366944        1.87694449791138       -1.42703697173269
H           -4.67830785713507        0.99535924319968        0.16880015808507
20
 energy: -32.779191590993 gnorm: 0.015882903704 xtb: 6.6.0 (conda-forge)
C            3.66792843841027       -0.56776003443194       -0.16279229576844
C            2.27170420887251       -0.41303174264004        0.40181944788999
O            2.01819526281944       -0.63422651611683        1.55674369501566
N            1.33394745581273        0.03147352084084       -0.48793464280375
C           -0.04820391535448        0.11518125618092       -0.22040083530479
C           -0.67280513747187       -0.84033536578531        0.57284073122050
C           -2.02790774531710       -0.77750821055987        0.82055878685346
C           -2.79873182099381        0.24155437900584        0.27429072811046
C           -2.18531201215369        1.18737594780423       -0.53727349677185
C           -0.82452763051340        1.12368534034567       -0.78229322083055
O           -4.12793274340709        0.24968930897699        0.56254772295918
H            4.21285355516855       -1.23517357232335        0.49964227575797
H            3.67001216440603       -0.97786310924029       -1.16716097985201
H            4.19002719453074        0.38645734679145       -0.16939560614750
H            1.64731744083081        0.42804528101120       -1.35861612695809
H           -0.09275063758770       -1.63860095161678        1.00455035302577
H           -2.50338824739007       -1.52146070687528        1.43899085509199
H           -2.77636801734624        1.98089765876567       -0.97532355007424
H           -0.37034034573291        1.86932594685466       -1.41952969053240
H           -4.58351746758272        0.99227422301223        0.14883584911860
20
 energy: -32.779993147633 gnorm: 0.009313953036 xtb: 6.6.0 (conda-forge)
C            3.65635778939187       -0.54966075572392       -0.17085741027631
C            2.26440060299007       -0.41153396539145        0.41791382582243
O            2.00903572618398       -0.69738779002788        1.56684033030864
N            1.33063881189169        0.02346546899063       -0.47603676790862
C           -0.04913056723871        0.10360677013855       -0.21670172882848
C           -0.67227830267632       -0.84605982640592        0.58600986255917
C           -2.02607027124587       -0.77857970656548        0.82944774264470
C           -2.79251964410631        0.24054663317303        0.27328009727076
C           -2.17638770253531        1.18179408288834       -0.54143966816992
C           -0.81692456607041        1.11256182118532       -0.78499877779889
O           -4.12071667209449        0.25688603710844        0.55275864511289
H            4.22002260761312       -1.22367795090611        0.46927096299904
H            3.63359293803441       -0.94033890839921       -1.18372118483779
H            4.15812939749759        0.41529064539416       -0.17237252423520
H            1.64471080568176        0.42223048812067       -1.34609125805041
H           -0.08913175372271       -1.63652318153508        1.02818999387257
H           -2.50960210981913       -1.51518582634557        1.44993143024225
H           -2.76337943087789        1.97581315339013       -0.98472779848041
H           -0.35564569654564        1.85569179045776       -1.42051032415721
H           -4.54490196235171        1.01106102045358        0.12391455191074
20
 energy: -32.780446756926 gnorm: 0.010440752254 xtb: 6.6.0 (conda-forge)
C            3.65507532148112       -0.53089727075357       -0.17807624947898
C            2.26099080972818       -0.44248032285956        0.42178406112181
O            2.01622700490700       -0.75156489205983        1.56823194134795
N            1.32651853158009        0.00789894583129       -0.46296196867498
C           -0.05203368422470        0.09350234428119       -0.20480467086191
C           -0.67781941379714       -0.85268982702592        0.60221624393910
C           -2.03210762291224       -0.77916308742920        0.83860614488046
C           -2.79166431640096        0.24120561125143        0.27147823903538
C           -2.17033683276395        1.17851356404682       -0.54436788884735
C           -0.80996930473071        1.10398930002792       -0.78200785332369
O           -4.12307876647388        0.27092029122481        0.53839303312185
H            4.25146744760704       -1.19846865492634        0.44122395849075
H            3.61712534630343       -0.90892908871609       -1.19683301396556
H            4.12234636082582        0.45316038593586       -0.17959773217209
H            1.64349023166704        0.41537995976428       -1.33056685129048
H           -0.09459827708976       -1.63939469056705        1.05016606386261
H           -2.52488002652525       -1.50865827734021        1.46045097782173
H           -2.75214835939150        1.97333955175839       -0.99345453219960
H           -0.33987122127445        1.84072626487117       -1.41891387917035
H           -4.52453322851521        1.03360989268461        0.09913397636329
20
 energy: -32.780801946964 gnorm: 0.008180076818 xtb: 6.6.0 (conda-forge)
C            3.65858841674659       -0.51421330362263       -0.18587455596951
C            2.26543537858337       -0.46940165033135        0.42193414701075
O            2.03014548398980       -0.80462377028808        1.56201813900303
N            1.32354938360715       -0.00653410210919       -0.44993408546548
C           -0.05545989857834        0.08174196754056       -0.19284124726878
C           -0.68691790570962       -0.85920401007933        0.61777846805316
C           -2.04261641337434       -0.77804443228330        0.84660261985392
C           -2.79370410003724        0.24384516422182        0.26939643854506
C           -2.16567590917147        1.17597854400294       -0.54737286257110
C           -0.80422559933419        1.09361901720738       -0.77970432055307
O           -4.12968963796751        0.28762625844331        0.52479934965578
H            4.28542219658894       -1.16742052575201        0.41845322321586
H            3.61533819507688       -0.88687316146116       -1.20679028176560
H            4.09282466099388        0.48606606640147       -0.18825079482499
H            1.64223504741580        0.41457834466509       -1.31218670211650
H           -0.10610356486644       -1.64458229247555        1.06995153188962
H           -2.54473398607449       -1.50103293358868        1.46899703004792
H           -2.74174936227330        1.97223562498281       -1.00129419225581
H           -0.32466812559417        1.82376121655681       -1.41714458477781
H           -4.51779426002131        1.05247797796911        0.08156268029344
20
 energy: -32.781166044388 gnorm: 0.008009510290 xtb: 6.6.0 (conda-forge)
C            3.66296656386431       -0.49443512788882       -0.19667575544715
C            2.27310491011764       -0.49997069895882        0.41910487190636
O            2.04650179807507       -0.87718736195918        1.54749509873473
N            1.32085870453532       -0.02159375047823       -0.43493850973609
C           -0.05848728379055        0.06766988134067       -0.17857937993700
C           -0.69875390207667       -0.86495152527061        0.63550391726803
C           -2.05623751098792       -0.77442254237615        0.85540842595230
C           -2.79708829632916        0.24807704583499        0.26699055662695
C           -2.16023564302222        1.17240023513027       -0.55161430338363
C           -0.79801757822630        1.08025433198210       -0.77665902585720
O           -4.13724970938867        0.30664206545157        0.51124382343662
H            4.31933269615585       -1.12590043080837        0.39697718515447
H            3.62459532779622       -0.86453877684898       -1.21828744072327
H            4.06095932150124        0.52107201017723       -0.19859784778923
H            1.63932497852077        0.42144690954352       -1.28711513862216
H           -0.12224238787682       -1.64874822069599        1.09565335689720
H           -2.56780891263575       -1.48948798702556        1.47947307720777
H           -2.72959101216402        1.96930997884433       -1.01254553881999
H           -0.30878099030656        1.80162598548841       -1.41637426866789
H           -4.51295107376180        1.07273797851762        0.06363689579903
20
 energy: -32.781549426253 gnorm: 0.009787861026 xtb: 6.6.0 (conda-forge)
C            3.66696486670745       -0.47104383565694       -0.20981139939620
C            2.28195865178593       -0.54031677995865        0.41157264580218
O            2.06491984497325       -0.97880786794851        1.52040497682827
N            1.31829512124645       -0.03782871389300       -0.41743652531171
C           -0.06047401183986        0.05134942908587       -0.16127535391005
C           -0.71229188333904       -0.86797068267932        0.65834998088262
C           -2.07172861455212       -0.76614432486251        0.86736690660833
C           -2.80124989791426        0.25475499377972        0.26444446906348
C           -2.15309463282979        1.16764538797534       -0.55807503081973
C           -0.79081894872909        1.06330378176162       -0.77329932893247
O           -4.14427715687703        0.32710981344848        0.49715380551950
H            4.35566036501551       -1.07364273996571        0.37579111800013
H            3.64254691192659       -0.83756438228742       -1.23299660513379
H            4.01924843495784        0.56167128222773       -0.20927350659358
H            1.63418610925945        0.43806089162890       -1.25332448970465
H           -0.14315779096663       -1.65007057020339        1.13107262892803
H           -2.59256259787301       -1.47190756104608        1.49424687540501
H           -2.71427895370665        1.96402014577130       -1.02961216437144
H           -0.29171200655836        1.77449217201787       -1.41639530499656
H           -4.50793381068665        1.09288956080467        0.04119630213244
20
 energy: -32.781888486683 gnorm: 0.010568441532 xtb: 6.6.0 (conda-forge)
C            3.66957378488088       -0.44767112573103       -0.22316305441212
C            2.29052167381577       -0.58903240056148        0.39725761218140
O            2.08424637284094       -1.09962915584677        1.47751747910749
N            1.31650767890389       -0.05266987714835       -0.39950837520689
C           -0.06067803693956        0.03550347170513       -0.14225498550753
C           -0.72490770368855       -0.86657028079480        0.68541658563141
C           -2.08622827325782       -0.75284267295753        0.88260160007237
C           -2.80564916642659        0.26339716944077        0.26207409156018
C           -2.14488219636456        1.16265036647205       -0.56577366540450
C           -0.78316417087309        1.04541155212445       -0.76928221709623
O           -4.14983535521958        0.34556081494572        0.48296927918202
H            4.38899238716416       -1.01792574105641        0.35669835281178
H            3.66692562874185       -0.80712758168780       -1.24974364511207
H            3.96964149233148        0.60165825362074       -0.21590267886849
H            1.62765579314716        0.46416524094901       -1.21324741348177
H           -0.16590023453804       -1.64672921284217        1.17451645420240
H           -2.61459514450992       -1.44821072713637        1.51452270743683
H           -2.69713300443166        1.95705656437824       -1.05097274053481
H           -0.27537318808701        1.74626650913206       -1.41675910120739
H           -4.50551833748981        1.10673883299451        0.01313371464571
20
 energy: -32.782119577802 gnorm: 0.005319635743 xtb: 6.6.0 (conda-forge)
C            3.66889100044076       -0.43854939911624       -0.22837304355835
C            2.29422425720850       -0.61758621580721        0.38225777623096
O            2.09286850977228       -1.17293084316408        1.43730771824256
N            1.31706273978561       -0.05553693153011       -0.39124061754393
C           -0.05876190181225        0.03029194753033       -0.13268110268169
C           -0.72838825530455       -0.86010159453318        0.70165432055417
C           -2.09032989212275       -0.74106813595363        0.89316930837624
C           -2.80755031719607        0.26909570021366        0.26147835317702
C           -2.14074574758979        1.16012479525698       -0.57046379703869
C           -0.77984825062665        1.03719741940605       -0.76733094385239
O           -4.15053522184374        0.35063934032147        0.47722123409453
H            4.39739175259119       -0.99190175534351        0.35198933263489
H            3.68429360851378       -0.79050402808469       -1.25804798302162
H            3.94113421788757        0.61492816855744       -0.21283437486405
H            1.62432542206314        0.48635720474564       -1.18803121223778
H           -0.17633682129756       -1.63879404042345        1.20129484137247
H           -2.61964902547121       -1.43046702765197        1.53037155656412
H           -2.68857228767238        1.95202228071981       -1.06432122316434
H           -0.26994371918762        1.73363540493024       -1.41780168637485
H           -4.50933006813827        1.10314770992645       -0.00551845690954
20
 energy: -32.782166065966 gnorm: 0.022326076473 xtb: 6.6.0 (conda-forge)
C            3.66770810594852       -0.42354896990376       -0.23305552640762
C            2.29472601009156       -0.66327602658587        0.36250111144795
O            2.09403456051945       -1.30958452528915        1.37699710232367
N            1.31819756854416       -0.05437984032685       -0.37750593318953
C           -0.05686447446178        0.02625474795418       -0.12242440513244
C           -0.72991771001307       -0.84865798611735        0.72403098324507
C           -2.09185537597561       -0.72268343470564        0.91063618604383
C           -2.80834809605522        0.27719736414459        0.26123237094081
C           -2.13693807229160        1.15515303387642       -0.58138899609196
C           -0.77663153768288        1.02637880743424       -0.77097410623130
O           -4.14959991411889        0.35953669717319        0.47338382702913
H            4.41399232396043       -0.95725517138736        0.34487816003219
H            3.70409122986150       -0.76364421591533       -1.26686023396312
H            3.89590967385132        0.64102916987561       -0.20601987622220
H            1.62518509067877        0.52527756993855       -1.14793147917740
H           -0.18396596105753       -1.62143931572154        1.23963414750257
H           -2.62129318291003       -1.40049317381161        1.56047878824827
H           -2.68038934796611        1.94166494592401       -1.08852723616731
H           -0.26483125320235        1.71438457912639       -1.42981267592024
H           -4.51300963772071        1.09808574431728       -0.02917220831068
20
 energy: -32.782417441820 gnorm: 0.005648313736 xtb: 6.6.0 (conda-forge)
C            3.66624058255208       -0.43299705365190       -0.22677084417530
C            2.28867610759364       -0.65916628254098        0.35836906724265
O            2.08243893269089       -1.29121112562230        1.36887396213361
N            1.31956058201959       -0.04709869547170       -0.38357696345728
C           -0.05583090661173        0.03390681893740       -0.12977799318381
C           -0.72322812663686       -0.84373412364349        0.71765713175542
C           -2.08409365476108       -0.72179385057589        0.90935917391819
C           -2.80635176744260        0.27636142260217        0.26339993792714
C           -2.14011116021263        1.15697466674934       -0.58014602876792
C           -0.77962492530703        1.03308052642031       -0.77411676148957
O           -4.14622368588719        0.35142562216228        0.48081487592878
H            4.40318441821828       -0.97411025456627        0.35757653948846
H            3.70464441523028       -0.77360622328097       -1.25950798329356
H            3.90200836559335        0.62868659635986       -0.19905343136951
H            1.63017317908757        0.52782974063596       -1.15275638629221
H           -0.17403149461713       -1.61523914343364        1.23012466136179
H           -2.60894624992030       -1.40133277154034        1.56097390656180
H           -2.68702870981361        1.94216367257782       -1.08502434546558
H           -0.27241796865830        1.72444488513265       -1.43320654138297
H           -4.51883793311729        1.08541557274968       -0.02311197744043
20
 energy: -32.782552445771 gnorm: 0.005396736002 xtb: 6.6.0 (conda-forge)
C            3.66709053189965       -0.43465745189579       -0.22349636967218
C            2.28459321770607       -0.67574700912639        0.34478756006258
O            2.07274576629211       -1.34151405938724        1.33164313378761
N            1.32126846294498       -0.03641539486838       -0.38176558081839
C           -0.05492871761211        0.04072275824143       -0.13118123575036
C           -0.71831570853700       -0.83343021041277        0.72351187316407
C           -2.07886014979401       -0.71326952420367        0.91720412377767
C           -2.80585864275361        0.27821370092614        0.26537713590043
C           -2.14348360722677        1.15472746341429       -0.58562170644803
C           -0.78234922531858        1.03379310447933       -0.78087999559750
O           -4.14507602157194        0.34913260402060        0.48635264676659
H            4.39827386639360       -0.97654308858996        0.36576354729378
H            3.71717852806526       -0.77047643599783       -1.25737374449161
H            3.89639499764349        0.62632862812924       -0.18706584073795
H            1.63693179282685        0.55607622627746       -1.13683740736847
H           -0.16664611197681       -1.60006178116185        1.23990837396930
H           -2.60013867297548       -1.38873689338289        1.57610815048255
H           -2.69298541961196        1.93487114397200       -1.09563855914446
H           -0.27870316144039        1.72295296044433       -1.44547801269331
H           -4.52693172495341        1.07403325912194       -0.02521809248263
20
 energy: -32.782693793486 gnorm: 0.012521049933 xtb: 6.6.0 (conda-forge)
C            3.67120345477856       -0.43645253732565       -0.21773990531927
C            2.27697291583625       -0.71266987122008        0.31606927092704
O            2.05429748149904       -1.46113078900637        1.24657273249752
N            1.32453105575640       -0.01191903694638       -0.37134925710236
C           -0.05406746013049        0.05607615472438       -0.13043073707569
C           -0.71046899032866       -0.81089675510456        0.73935071605804
C           -2.07102058178344       -0.69596595378716        0.93394486008815
C           -2.80602405567443        0.28125228857743        0.26802158319178
C           -2.15180674165730        1.14760128509585       -0.59959708145504
C           -0.78869113644560        1.03306645461376       -0.79669634830572
O           -4.14506341854092        0.34745620393936        0.49641968541951
H            4.39678018767907       -0.97962816151436        0.38021037169868
H            3.74566723998175       -0.76071852111680       -1.25431895596693
H            3.88291196715143        0.62834214882390       -0.16326068855477
H            1.65161691047935        0.61444213730767       -1.09545083304913
H           -0.15135297483743       -1.56590071702863        1.26407924105444
H           -2.58712943033149       -1.36224504188438        1.60649175096702
H           -2.70756404075561        1.91574564650228       -1.12192296299904
H           -0.29155972713288        1.71536336612030       -1.47380378338530
H           -4.53903265554365        1.05818169922944       -0.02648965868925
20
 energy: -32.782782964638 gnorm: 0.003229293819 xtb: 6.6.0 (conda-forge)
C            3.67325396146938       -0.44238142371662       -0.21545041365865
C            2.27576472053888       -0.69917500455882        0.31801296964936
O            2.05061826425851       -1.43800295927004        1.24884777036801
N            1.32486569157769       -0.00354354753253       -0.37084087750801
C           -0.05508300771194        0.06256926453372       -0.13246231354662
C           -0.70864037594133       -0.80962021706323        0.73549092091618
C           -2.06941381075384       -0.70000510579617        0.93120653525019
C           -2.80621906469146        0.27742420409428        0.26792349007055
C           -2.15635198578344        1.14597961942109       -0.60005838790986
C           -0.79217261527282        1.03655835730393       -0.79937992393000
O           -4.14653601826271        0.34386019175685        0.49913994088592
H            4.38749454832152       -0.99827076010974        0.38390168072236
H            3.74316119193169       -0.76724250238327       -1.25128254204555
H            3.90468303686453        0.61690915747345       -0.16034917013866
H            1.65493239140496        0.61578590055741       -1.09789254978505
H           -0.14378295222969       -1.56310253820415        1.25637657094755
H           -2.58484697580772       -1.36856271669498        1.60151243848220
H           -2.71622446417129        1.91216684484964       -1.12103033889378
H           -0.29744568811527        1.71923395933302       -1.47730829961331
H           -4.53785684762571        1.05941927600617       -0.01625750026316
20
 energy: -32.782833273035 gnorm: 0.002694510192 xtb: 6.6.0 (conda-forge)
C            3.67417917102761       -0.44247616729099       -0.21703544652599
C            2.27510906776992       -0.70960808091561        0.31094247685966
O            2.05076948248899       -1.46986377606757        1.22405692725295
N            1.32553326056425        0.00482971928990       -0.36202733043381
C           -0.05537006990770        0.06607237344367       -0.12790269036473
C           -0.70908662366509       -0.80399701590617        0.74239998611611
C           -2.06998400205077       -0.69617829841645        0.93656698276332
C           -2.80694068771900        0.27735841963014        0.26823375575738
C           -2.15831688519768        1.14157786436982       -0.60455693693932
C           -0.79367253320279        1.03434610578319       -0.80138648611285
O           -4.14807420352909        0.34503873303676        0.49795933454616
H            4.38877281001758       -0.99970802622446        0.38198954454196
H            3.75039709932186       -0.76315303674299       -1.25391209639186
H            3.90295441164150        0.61901030580246       -0.15666823385198
H            1.65741825936352        0.63607889722672       -1.07973233778297
H           -0.14195199233582       -1.55348024616973        1.26723283875345
H           -2.58550197140154       -1.36259047007236        1.60880371311214
H           -2.71992197415150        1.90285937311130       -1.13101155477528
H           -0.29995406092877        1.71349184667294       -1.48320884610014
H           -4.53615855810556        1.06039147943944       -0.02064360042453
20
 energy: -32.782868678389 gnorm: 0.008771318283 xtb: 6.6.0 (conda-forge)
C            3.67424976461297       -0.44190611456993       -0.22125671271763
C            2.27528043959917       -0.72532022326440        0.29710392009357
O            2.05084721536946       -1.53789535888143        1.16979397938656
N            1.32792999051703        0.02562778360615       -0.33977194530693
C           -0.05474632091815        0.07434257208452       -0.11533972453994
C           -0.70876668852453       -0.79000261919469        0.76056694213783
C           -2.07067687296521       -0.68749166209235        0.94824883222126
C           -2.80854998951872        0.27635077719116        0.26726860708001
C           -2.16145130350140        1.13171712243853       -0.61457978379618
C           -0.79608320437770        1.02946151183993       -0.80413488318171
O           -4.15098344428091        0.34547854425297        0.49182198788904
H            4.38781882184304       -1.00569493257672        0.37322513786536
H            3.75773651240141       -0.75049238191875       -1.26140164838626
H            3.90410833217438        0.61918858617792       -0.14965403808987
H            1.66026513924834        0.67480896878864       -1.03967612394509
H           -0.13894812725608       -1.53240024705693        1.29288904435143
H           -2.58602591442145       -1.34967635484446        1.62469389783676
H           -2.72596145696009        1.88247548279186       -1.15284018322519
H           -0.30391778013313        1.70180893206075       -1.49311562897508
H           -4.53192511290851        1.05961961316724       -0.03374167669829
20
 energy: -32.782908770711 gnorm: 0.002472957908 xtb: 6.6.0 (conda-forge)
C            3.67282133862767       -0.44040020503096       -0.22527547529381
C            2.27734126531024       -0.72341878594845        0.30114170265063
O            2.05553691161329       -1.52398551794323        1.17947593356525
N            1.32747992413164        0.02112723860469       -0.33645961173082
C           -0.05456003697993        0.07028315582167       -0.11134648897049
C           -0.71137561562542       -0.79305767795396        0.76255239988893
C           -2.07386920233991       -0.68930318717112        0.94721919384807
C           -2.80901413251595        0.27586769288294        0.26590573053780
C           -2.15838116771442        1.13163540308080       -0.61306447802765
C           -0.79347400899741        1.02761659081855       -0.79940550433412
O           -4.15177868213722        0.34656104961252        0.48548379466905
H            4.39217349703050       -1.00283359144003        0.36407862228214
H            3.75120756450611       -0.74900144982647       -1.26596618221632
H            3.90275801266947        0.62240323311199       -0.15540865117335
H            1.65629836889592        0.66939161415481       -1.03916911118986
H           -0.14464452001358       -1.53728516118593        1.29582393331745
H           -2.59091350919948       -1.35242766522388        1.62150986844587
H           -2.72067741721808        1.88341523529462       -1.15145108451365
H           -0.29860621231052        1.70019926169186       -1.48599495979382
H           -4.52812237773301        1.06321276664959       -0.03954963196162
20
 energy: -32.782927331904 gnorm: 0.001770144291 xtb: 6.6.0 (conda-forge)
C            3.67259115326484       -0.44197110875111       -0.22679136905077
C            2.27761992996171       -0.72635102334986        0.29774609090635
O            2.05359232158023       -1.53594381601972        1.16721034221731
N            1.32863888096262        0.02679496136892       -0.33102492066267
C           -0.05373695809325        0.07310028023802       -0.10786177196856
C           -0.71004137934238       -0.78874358391435        0.76774446122788