12
 energy: -15.878386872033 gnorm: 0.031913717087 xtb: 6.6.0 (conda-forge)
C            1.37510000000000        0.25760000000000        0.00310000000000
C            0.46470000000000        1.31910000000000       -0.03800000000000
C           -0.91040000000000        1.06150000000000       -0.04110000000000
C           -1.37510000000000       -0.25760000000000       -0.00310000000000
C           -0.46470000000000       -1.31910000000000        0.03800000000000
C            0.91040000000000       -1.06150000000000        0.04110000000000
H            2.43900000000000        0.45690000000000        0.00550000000000
H            0.82420000000000        2.33950000000000       -0.06750000000000
H           -1.61480000000000        1.88270000000000       -0.07290000000000
H           -2.43900000000000       -0.45690000000000       -0.00550000000000
H           -0.82420000000000       -2.33950000000000        0.06750000000000
H            1.61480000000000       -1.88270000000000        0.07290000000000
12
 energy: -15.879624561629 gnorm: 0.004423117914 xtb: 6.6.0 (conda-forge)
C            1.36251196719414        0.25522520631959        0.00305103402308
C            0.46043603013877        1.30699359633507       -0.03769363743995
C           -0.90208075050389        1.05176050588072       -0.04074730043024
C           -1.36251196718557       -0.25522520631917       -0.00305103402302
C           -0.46043603014105       -1.30699359632820        0.03769363743971
C            0.90208075050145       -1.05176050588649        0.04074730043041
H            2.42424536399992        0.45410521753222        0.00544334941094
H            0.81922571451128        2.32541186496326       -0.06703344739087
H           -1.60504762095532        1.87130652845492       -0.07248165369489
H           -2.42424536400351       -0.45410521753270       -0.00544334941095
H           -0.81922571451143       -2.32541186496578        0.06703344739094
H            1.60504762095522       -1.87130652845343        0.07248165369484
12
 energy: -15.879640574538 gnorm: 0.000234217181 xtb: 6.6.0 (conda-forge)
C            1.36086329638886        0.25491470992196        0.00305967232482
C            0.45987422534060        1.30540007958881       -0.03762534011385
C           -0.90099239689133        1.05048031469884       -0.04068377231377
C           -1.36086329639100       -0.25491470992077       -0.00305967232488
C           -0.45987422534311       -1.30540007959093        0.03762534011390
C            0.90099239689259       -1.05048031470045        0.04068377231383
H            2.42272420457686        0.45381762368569        0.00543634087627
H            0.81870955199745        2.32396702608231       -0.06700772101774
H           -1.60403481486185        1.87013734000816       -0.07244094106100
H           -2.42272420457906       -0.45381762368542       -0.00543634087629
H           -0.81870955199411       -2.32396702608431        0.06700772101785
H            1.60403481486411       -1.87013734000388        0.07244094106088
12
 energy: -15.879640652359 gnorm: 0.000045606789 xtb: 6.6.0 (conda-forge)
C            1.36093436425715        0.25492812217740        0.00304838069256
C            0.45989589859178        1.30546044543013       -0.03764978383383
C           -0.90103944026737        1.05053101782372       -0.04069901552033
C           -1.36093436426103       -0.25492812217904       -0.00304838069254
C           -0.45989589859163       -1.30546044543116        0.03764978383387
C            0.90103944026850       -1.05053101782026        0.04069901552024
H            2.42294469624376        0.45386149301107        0.00544102009718
H            0.81877884578010        2.32417899075292       -0.06699888524466
H           -1.60417314001975        1.87031237297874       -0.07244234255241
H           -2.42294469624180       -0.45386149301230       -0.00544102009713
H           -0.81877884577880       -2.32417899075191        0.06699888524462
H            1.60417314001909       -1.87031237297933        0.07244234255242
