20
 energy: -27.101499886185 gnorm: 0.129406476663 xtb: 6.6.0 (conda-forge)
C           -1.87210000000000       -1.06840000000000       -0.60980000000000
C           -1.60330000000000        0.09420000000000        0.35370000000000
C           -1.68240000000000        1.43810000000000       -0.38130000000000
C           -0.24960000000000       -0.07280000000000        1.06180000000000
O            0.81740000000000       -0.06720000000000        0.11620000000000
C            2.15720000000000       -0.19970000000000        0.49000000000000
O            2.47640000000000       -0.35640000000000        1.69990000000000
C            3.21550000000000       -0.20450000000000       -0.55990000000000
H           -1.83530000000000       -2.03490000000000       -0.06350000000000
H           -1.11870000000000       -1.08820000000000       -1.42630000000000
H           -2.88240000000000       -0.96460000000000       -1.06000000000000
H           -2.39810000000000        0.08340000000000        1.13210000000000
H           -2.69060000000000        1.56900000000000       -0.82900000000000
H           -0.92340000000000        1.49180000000000       -1.19100000000000
H           -1.50910000000000        2.27400000000000        0.32950000000000
H           -0.24170000000000       -1.03140000000000        1.62590000000000
H           -0.10640000000000        0.75640000000000        1.78920000000000
H            2.85000000000000        0.31750000000000       -1.46900000000000
H            4.12340000000000        0.31580000000000       -0.18840000000000
H            3.47320000000000       -1.25200000000000       -0.82020000000000
20
 energy: -27.114554657912 gnorm: 0.045590511010 xtb: 6.6.0 (conda-forge)
C           -1.86256853174487       -1.06712692639345       -0.60767141582425
C           -1.57802331643386        0.09342061418940        0.34444482326488
C           -1.67329162837998        1.43547290118887       -0.37946721062092
C           -0.22223334491791       -0.07338492417665        1.04805235758280
O            0.83935388722696       -0.06607549340368        0.09580399553591
C            2.12762911805293       -0.21130607661164        0.51919822952155
O            2.40810536375092       -0.34565042033352        1.69617521396795
C            3.16779432081475       -0.19513606953060       -0.55593548661775
H           -1.82673314240180       -2.02226536960910       -0.07736991924745
H           -1.12553199760311       -1.08945280100774       -1.41243947010132
H           -2.85607248249509       -0.96400600430865       -1.05219285635439
H           -2.34745199874391        0.07960221895190        1.13358406283268
H           -2.66488552384510        1.56330606336443       -0.82173308937546
H           -0.93040128976175        1.49177044610033       -1.17712988036260
H           -1.50241839015467        2.26339639843235        0.31345478813521
H           -0.20905986147431       -1.02039149094251        1.61072719195702
H           -0.07509492964937        0.74296194018408        1.77286216174719
H            2.82433618745055        0.30829318523904       -1.46363654271568
H            4.06598349158954        0.30059160415792       -0.17837823467453
H            3.44056406872007       -1.22391979549080       -0.80844871865084
20
 energy: -27.117224480678 gnorm: 0.015863019790 xtb: 6.6.0 (conda-forge)
C           -1.84479125059073       -1.06593758938015       -0.60856817656551
C           -1.56468735705840        0.09188198937268        0.34461857209297
C           -1.65599835801924        1.43056792315197       -0.38168730339066
C           -0.20424017635065       -0.07398340156321        1.03330351615098
O            0.84983164668091       -0.05810974433048        0.07269886303265
C            2.09683923267832       -0.19784636114047        0.54442538122972
O            2.34958767221635       -0.35046892221388        1.70469635610800
C            3.12502393834282       -0.18946117077928       -0.55218541451634
H           -1.81008162992214       -2.01346129026965       -0.07942075542245
H           -1.11016282061585       -1.08599759445003       -1.40637436189106
H           -2.83183666306974       -0.95623254827631       -1.04790470004778
H           -2.31435906919077        0.07577775421461        1.14514022429530
H           -2.64227493653919        1.55020954090536       -0.82017943486848
H           -0.91615863039235        1.48333281739104       -1.17316009508370
H           -1.48695308777312        2.25221582048475        0.30770008890637
H           -0.17251061453210       -1.01851116570125        1.58848955486892
H           -0.04354072748183        0.73813534038035        1.75151207111148
H            2.76795664388855        0.30875933290030       -1.44544224300580
H            4.02220485548156        0.29549590384392       -0.17758220444768
H            3.38615133224762       -1.21626663454025       -0.80017993855693
20
 energy: -27.117542112293 gnorm: 0.006419819657 xtb: 6.6.0 (conda-forge)
C           -1.83628318494652       -1.06636182039427       -0.60776894138271
C           -1.56179016354823        0.09214309263482        0.34683738611728
C           -1.64754909306050        1.43081522210843       -0.38045864587709
C           -0.20282346917075       -0.07268478830035        1.03133014084649
O            0.84556319728435       -0.05950530497827        0.06425844020816
C            2.08195117606982       -0.21416250292645        0.54719469618140
O            2.32858067155849       -0.34205473418593        1.71638311946322
C            3.11166597754197       -0.18874587690205       -0.55162467120469
H           -1.80025915641454       -2.01550648809845       -0.07977043904722
H           -1.09520416392245       -1.08144038595632       -1.40110923608251
H           -2.82132509662129       -0.95741388326312       -1.05339764075220
H           -2.30908965213765        0.07565263711970        1.14790310810264
H           -2.63192519548950        1.55157145705049       -0.82449983133836
H           -0.90228506237125        1.47699700817861       -1.16865084931096
H           -1.47702091679386        2.25361808598555        0.30861383814741
H           -0.16185502958855       -1.01953823513338        1.58166867095970
H           -0.03046950629220        0.73859959903809        1.74784483475903
H            2.73104553611151        0.30807574088932       -1.43679903248955
H            4.00750834408570        0.30533285878298       -0.18582065866811
H            3.37156478770546       -1.21529168164942       -0.80223428863192
20
 energy: -27.117634337799 gnorm: 0.002426652618 xtb: 6.6.0 (conda-forge)
C           -1.82936255749198       -1.06718443439284       -0.60743343534722
C           -1.56212492029100        0.09132798954906        0.34975395468749
C           -1.64140651614235        1.42986716759038       -0.37952482039367
C           -0.20608051800192       -0.07330941516570        1.03490772517585
O            0.84164983801507       -0.05463799947992        0.06598863405110
C            2.07644445972197       -0.20177018664061        0.54954589593725
O            2.32133821359364       -0.34378565148206        1.71974759357715
C            3.10386425127789       -0.18920913709862       -0.55318202801803
H           -1.79392143970933       -2.01776920937713       -0.08003348542975
H           -1.08108097919992       -1.07917549285141       -1.39572082598898
H           -2.81183410350250       -0.96082310866964       -1.06132531961583
H           -2.31317487373653        0.07503880221493        1.14674907035003
H           -2.62276816338252        1.55456438168198       -0.83112043932315
H           -0.88975528146533        1.47171748823328       -1.16351821428642
H           -1.47101254705352        2.25407366993775        0.30937153562504
H           -0.15845813128011       -1.02149959524506        1.58302435248870
H           -0.03077693610577        0.73773353113460        1.75117272812478
H            2.70927592368304        0.30896003335806       -1.43285493389378
H            4.00516408177759        0.30402930673970       -0.19922817869146
H            3.35402019929362       -1.21804814003674       -0.80641980902911
20
 energy: -27.117663628459 gnorm: 0.001428540088 xtb: 6.6.0 (conda-forge)
C           -1.82534918974700       -1.06710050407871       -0.60782474640263
C           -1.56330210495548        0.09124999267190        0.35123523409787
C           -1.63800753955927        1.42947376137471       -0.37937366833853
C           -0.20962082629927       -0.07328198922311        1.03984988059671
O            0.83963073899423       -0.05423732532684        0.07142501507239
C            2.07564771754676       -0.20234187022425        0.55002801912106
O            2.32474614960796       -0.34159733891470        1.71902289873502
C            3.09995073824164       -0.18938665924226       -0.55587989050611
H           -1.79171779594305       -2.01775448251295       -0.08023559445311
H           -1.07297007972968       -1.07875316227128       -1.39252719166789
H           -2.80563248335356       -0.96231733444410       -1.06690787408023
H           -2.31902116310710        0.07535062188995        1.14404642892248
H           -2.61709271583173        1.55618323174249       -0.83542774218433
H           -0.88264363756765        1.47029411848551       -1.16015928626769
H           -1.46944473990242        2.25367920886878        0.31012769428515
H           -0.16221999219875       -1.02173060479011        1.58733588133703
H           -0.03511498606133        0.73718429908940        1.75691713573412
H            2.70016802287413        0.30848663880740       -1.43365156642390
H            4.00277987536617        0.30473529811531       -0.20792202016806
H            3.34921401162541       -1.21803590001715       -0.81017860740935
20
 energy: -27.117687767520 gnorm: 0.001050337278 xtb: 6.6.0 (conda-forge)
C           -1.81986940107531       -1.06758592665467       -0.60883730189314
C           -1.56382224109102        0.09120008037912        0.35139332100799
C           -1.63406862505163        1.42971408615796       -0.37917763455474
C           -0.21372120020206       -0.07317259038181        1.04705166548943
O            0.83752611052122       -0.05329778451699        0.07934316392183
C            2.07604615791031       -0.20234696141692        0.55187605685141
O            2.33211762648176       -0.33885605941450        1.71917684455973
C            3.09347611685125       -0.18964560159068       -0.56042552359626
H           -1.78935461440713       -2.01789163083883       -0.08065118313088
H           -1.06256756674336       -1.07921439870955       -1.38838298355702
H           -2.79693423670518       -0.96360209432737       -1.07425366939640
H           -2.32576220031122        0.07546386260107        1.13884790259643
H           -2.61020260574257        1.55742690464246       -0.84056799510071
H           -0.87443404196947        1.47016481298351       -1.15540837159757
H           -1.46888626427826        2.25341205402668        0.31158631352435
H           -0.16802329138788       -1.02187866291646        1.59396929552654
H           -0.04216523650234        0.73672490112725        1.76538468139124
H            2.69063430428972        0.30717105843731       -1.43714169754828
H            3.99816167936193        0.30444289650479       -0.21874124582277
H            3.34184953005124       -1.21812894609238       -0.81514163867116
20
 energy: -27.117699149875 gnorm: 0.000782196807 xtb: 6.6.0 (conda-forge)
C           -1.81557680064611       -1.06763434627341       -0.60965362793739
C           -1.56378001157647        0.09102376919781        0.35191377811028
C           -1.63133978131144        1.42955311941963       -0.37896420586178
C           -0.21502776503844       -0.07302559613711        1.05055567672483
O            0.83582646826239       -0.05254770493566        0.08250159327451
C            2.07494227171386       -0.20111865366783        0.55338838323613
O            2.33389435692137       -0.33744032484394        1.72013937179086
C            3.08809540165562       -0.18983210151052       -0.56280533323293
H           -1.78749519120683       -2.01773771907942       -0.08109366113941
H           -1.05467195144652       -1.07953783751072       -1.38562589171613
H           -2.79046452104329       -0.96334847734876       -1.07942057548341
H           -2.32793802271108        0.07490075160880        1.13720754040032
H           -2.60568901964429        1.55699773109106       -0.84406336145708
H           -0.86860920065371        1.47042061833457       -1.15206891598792
H           -1.46893499161536        2.25293607642975        0.31273877184441
H           -0.16923988605381       -1.02193811748518        1.59703286063300
H           -0.04430436653678        0.73708625018145        1.76874773664908
H            2.68142002852247        0.30621224975123       -1.43824674816202
H            3.99450681333095        0.30407134922664       -0.22488055661680
H            3.33438616907748       -1.21894103644840       -0.81750283506855
20
 energy: -27.117706008635 gnorm: 0.000384041173 xtb: 6.6.0 (conda-forge)
C           -1.81226649608988       -1.06786593313935       -0.61001328368249
C           -1.56372693959793        0.09087729027416        0.35225309054915
C           -1.62979660406674        1.42972642571591       -0.37813168657830
C           -0.21566588771952       -0.07272837471991        1.05299237179098
O            0.83423513465340       -0.05260551636228        0.08481126109860
C            2.07408883955257       -0.20049398277546        0.55406587516434
O            2.33495784461582       -0.33624393426292        1.72051745090863
C            3.08420717630079       -0.19026287949766       -0.56470948131905
H           -1.78725013106954       -2.01816459684343       -0.08153457078884
H           -1.04756595420351       -1.07991746341668       -1.38225989721217
H           -2.78475911181893       -0.96263677921779       -1.08461221463913
H           -2.32934903201887        0.07415108521798        1.13575793126174
H           -2.60223563309106        1.55617734579384       -0.84761174403283
H           -0.86374626727147        1.47105027089205       -1.14794934376678
H           -1.47096477653916        2.25331860108515        0.31424895918216
H           -0.17028395216004       -1.02132657574924        1.60003162122574
H           -0.04558021531376        0.73795095650679        1.77065576403378
H            2.67471514034205        0.30525668786367       -1.43899293598901
H            3.99188630482553        0.30357187377893       -0.23003519699354
H            3.32910056067026       -1.21973450114377       -0.81958397021296
20
 energy: -27.117710240795 gnorm: 0.000306177136 xtb: 6.6.0 (conda-forge)
C           -1.80920781882781       -1.06749412203411       -0.61058138544274
C           -1.56397105682973        0.09072880495627        0.35313857277431
C           -1.62878873793504        1.42947596992915       -0.37750649364212
C           -0.21619510368121       -0.07230880917572        1.05502780185946
O            0.83286771271876       -0.05307191587982        0.08672225571775
C            2.07349933388121       -0.20035044064048        0.55435106524028
O            2.33601003992551       -0.33500894152992        1.72053612883693
C            3.08111813366773       -0.19088320469137       -0.56657784346151
H           -1.78794106387196       -2.01756806778053       -0.08168411520561
H           -1.04073443305866       -1.08089810146688       -1.37907995558303
H           -2.77922699454013       -0.96137127650435       -1.08991215202637
H           -2.33080980525419        0.07321619934921        1.13537665579950
H           -2.59918151767724        1.55477575196690       -0.85142094797490
H           -0.85914508865788        1.47265988226531       -1.14368052895701
H           -1.47459420160604        2.25285858632847        0.31606739141008
H           -0.17136416417808       -1.02033338605647        1.60319754873160
H           -0.04659776820788        0.73907848259608        1.77205870819169
H            2.66946329871762        0.30423945439129       -1.44010065881420
H            3.98969716215266        0.30288374955470       -0.23441660674631
H            3.32510207326237       -1.22052861557775       -0.82161544070777
