3
 energy: -5.068981837263 gnorm: 0.047403802913 xtb: 6.6.0 (conda-forge)
O            0.00890000000000        0.40400000000000        0.00000000000000
H           -0.78730000000000       -0.18470000000000        0.00000000000000
H            0.77840000000000       -0.21930000000000        0.00000000000000
3
 energy: -5.070365168761 gnorm: 0.015718481885 xtb: 6.6.0 (conda-forge)
O            0.00863100982383        0.39107713004519        0.00000000000000
H           -0.77415740173805       -0.17853210314417       -0.00000000000000
H            0.76552639191421       -0.21254502690102        0.00000000000000
3
 energy: -5.070533457781 gnorm: 0.002115470910 xtb: 6.6.0 (conda-forge)
O            0.00843160729315        0.38165126446729        0.00000000000000
H           -0.77233342476646       -0.17386046646004       -0.00000000000000
H            0.76390181747331       -0.20779079800725        0.00000000000000
3
 energy: -5.070543037732 gnorm: 0.000670856573 xtb: 6.6.0 (conda-forge)
O            0.00839967820321        0.38026362317255        0.00000000000000
H           -0.77482846874727       -0.17311062939048       -0.00000000000000
H            0.76642879054406       -0.20715299378206        0.00000000000000
3
 energy: -5.070544094233 gnorm: 0.000338009272 xtb: 6.6.0 (conda-forge)
O            0.00836608308436        0.37877757944896        0.00000000000000
H           -0.77687211731385       -0.17232174216861       -0.00000000000000
H            0.76850603422949       -0.20645583728034        0.00000000000000
