20
 energy: -32.782977066344 gnorm: 0.000636113291 xtb: 6.6.0 (conda-forge)
C           -3.70012113289532       -0.05575544157717        0.23737298579555
C           -2.34686002704826        0.53215909465638       -0.11821099217727
O           -2.21484077895801        1.60696127165706       -0.65588573374169
N           -1.31948533772937       -0.28800543893626        0.24664556657694
C            0.05997948654122       -0.10590465791519        0.08239343306128
C            0.90608649183955       -1.12694578999639        0.50480900179952
C            2.27571562411665       -1.00939831531896        0.36678879915670
C            2.82389931712411        0.13556010602596       -0.19724034741590
C            1.97970452747057        1.15866413875603       -0.61708735868105
C            0.61215054101212        1.04236855119945       -0.48010507295152
O            4.16724956613410        0.29523704087443       -0.35531908321368
H           -4.48074252701702        0.58945576424878       -0.15473471254174
H           -3.80484754774676       -0.12058770291989        1.31862814932171
H           -3.80852351777004       -1.05144071601545       -0.18780424062679
H           -1.57196487658390       -1.16216105339712        0.68701181883914
H            0.49144515828631       -2.02336535062145        0.94503485474841
H            2.92153190975654       -1.81187531810900        0.69854792447734
H            2.41582692307093        2.04348884523896       -1.05147071940438
H           -0.03611610789295        1.83647829558267       -0.80882110684050
H            4.62981230828946       -0.48503332343286       -0.02755316618223
