24
 energy: -43.343189867724 gnorm: 0.080644510619 xtb: 6.6.0 (conda-forge)
C           -2.25460000000000        0.47410000000000        0.49710000000000
C           -1.07520000000000       -0.14520000000000       -0.27160000000000
C           -0.08390000000000       -0.86250000000000        0.68530000000000
C            1.26910000000000       -1.01790000000000       -0.02100000000000
C            1.82220000000000        0.37120000000000       -0.41090000000000
C            0.69720000000000        1.41560000000000       -0.63640000000000
O           -0.48420000000000        0.81640000000000       -1.14730000000000
O            0.43140000000000        2.11820000000000        0.55150000000000
O            2.64360000000000        0.26470000000000       -1.54770000000000
O            2.19050000000000       -1.66290000000000        0.82180000000000
O           -0.60140000000000       -2.12370000000000        1.02880000000000
O           -3.14930000000000        1.09180000000000       -0.38830000000000
H           -2.78130000000000       -0.31160000000000        1.08590000000000
H           -1.88920000000000        1.23520000000000        1.21640000000000
H           -1.50550000000000       -0.93070000000000       -0.93220000000000
H            0.05840000000000       -0.24790000000000        1.60710000000000
H            1.11270000000000       -1.62350000000000       -0.94680000000000
H            2.46270000000000        0.74480000000000        0.41930000000000
H            1.06030000000000        2.14880000000000       -1.39280000000000
H           -0.16780000000000        2.87040000000000        0.30490000000000
H            2.06160000000000        0.02600000000000       -2.31650000000000
H            2.04190000000000       -2.63960000000000        0.72290000000000
H           -0.19930000000000       -2.37580000000000        1.90080000000000
H           -3.66000000000000        0.36400000000000       -0.83020000000000
24
 energy: -43.350627714293 gnorm: 0.030871509682 xtb: 6.6.0 (conda-forge)
C           -2.25832048053087        0.47143294841713        0.49885049271878
C           -1.08485995945553       -0.16068138601195       -0.27056699050337
C           -0.08933761588698       -0.84367923764500        0.68537976646510
C            1.26621832881676       -1.00522640269704       -0.01895807644367
C            1.83106222765885        0.37220334026426       -0.40997370475658
C            0.69478747781562        1.39607884163752       -0.62699623955562
O           -0.46728561171739        0.78272607864934       -1.13768660103790
O            0.44431149678732        2.10129531762284        0.55766373627891
O            2.64239648224353        0.28736267237909       -1.55182843125301
O            2.19311550232338       -1.66054616221271        0.81482141959008
O           -0.62382442268055       -2.10057146053308        1.03785785669148
O           -3.17596422782019        1.09625911090585       -0.35978886972742
H           -2.74796255266862       -0.31850958102036        1.09334858394282
H           -1.88927111360588        1.23902805510686        1.19109133655507
H           -1.49131073830607       -0.94087888141643       -0.93731023989891
H            0.05853140458869       -0.22076408081897        1.58386915143079
H            1.10419793974574       -1.59270254521037       -0.94189770451302
H            2.47230008524988        0.73266101688235        0.40637015017015
H            1.02908851547652        2.09808609091952       -1.41384738272835
H           -0.17203938078289        2.82498636616288        0.33887461479074
H            2.07746120201149        0.03813975109194       -2.30597375547706
H            2.04166635338360       -2.61857337206818        0.74101403665293
H           -0.20721814402146       -2.37559811907393        1.87341821049861
H           -3.64784276862495        0.39737163866844       -0.84763135989055
24
 energy: -43.352281391419 gnorm: 0.007500182571 xtb: 6.6.0 (conda-forge)
C           -2.25379348972728        0.46572049812931        0.50263261660275
C           -1.08662010186508       -0.16646303393602       -0.27888649076132
C           -0.09585566424524       -0.82926861591491        0.68366948481578
C            1.25959201549830       -1.00161829296886       -0.02607844869456
C            1.83231073874035        0.37343448082601       -0.40798436950868
C            0.69113166084223        1.38913494672059       -0.62928552147209
O           -0.45707858793467        0.76839996190328       -1.14349039852730
O            0.44838833337068        2.08146410268821        0.55804188005276
O            2.64588357120105        0.29869876117650       -1.54593090535509
O            2.18438311639287       -1.66019972896548        0.80968510434498
O           -0.63793796684886       -2.08139461629533        1.05443456113169
O           -3.19124034069546        1.09540102803529       -0.33114344497227
H           -2.72051317938924       -0.32561517286609        1.10458967940203
H           -1.87664565070326        1.24178903211791        1.17099330478601
H           -1.48647237930951       -0.94447582478175       -0.94226990343561
H            0.05568150802954       -0.19622712905207        1.56588948527496
H            1.09523338225994       -1.58234436112954       -0.94598539546551
H            2.47256298188928        0.72315647278888        0.40399133662098
H            1.00175737109283        2.08013934969105       -1.42970408206036
H           -0.18424143111474        2.78696585284965        0.37093232306922
H            2.09938844108632        0.04489125279118       -2.29819351333178
H            2.03182539108249       -2.60787385375178        0.75797135278181
H           -0.19785956461895       -2.37346318902602        1.86000437059516
H           -3.62998015503363        0.41964807897001       -0.86378302589357
24
 energy: -43.352636051116 gnorm: 0.008611154917 xtb: 6.6.0 (conda-forge)
C           -2.25378635333944        0.46666654381777        0.50616460896162
C           -1.09071069134627       -0.16647413112918       -0.28162739585230
C           -0.09804233661908       -0.82296333100595        0.68133271324254
C            1.25687016072470       -1.00183002927705       -0.03097974953253
C            1.83235727177895        0.37320309904104       -0.41129768542851
C            0.68741296974838        1.38689520510052       -0.63221574271399
O           -0.45892744116739        0.76520076533797       -1.14737453476663
O            0.44909735496519        2.07127843302068        0.55770211697270
O            2.65467249649026        0.30212066490963       -1.54293204271092
O            2.18101562960958       -1.66107180114687        0.80496525898235
O           -0.64376254863276       -2.06930960591987        1.06736175154641
O           -3.20263728989062        1.09715868500843       -0.31360034136457
H           -2.70923155067057       -0.32792318931630        1.11156634348581
H           -1.87212223873925        1.24472751716672        1.16838469686832
H           -1.49128572695593       -0.94524786102163       -0.94247054034694
H            0.05904725733514       -0.18209647935008        1.55650728434917
H            1.08899878882717       -1.58161252745595       -0.95001216433814
H            2.46814839112512        0.72039613647859        0.40478069286158
H            0.99230233308468        2.07783832149316       -1.43375089220042
H           -0.20301624152224        2.76458832356427        0.39052486579214
H            2.11914080545554        0.04042046975272       -2.30024192159881
H            2.01788308134252       -2.60827558721481        0.77152076632583
H           -0.17320511853021       -2.37518207575564        1.85228600848137
H           -3.61031900307349        0.43139245390184       -0.88649409701609
24
 energy: -43.352879808671 gnorm: 0.009028843375 xtb: 6.6.0 (conda-forge)
C           -2.25425805062739        0.46838875670551        0.51100569844093
C           -1.09562458447417       -0.16539018180767       -0.28272830146908
C           -0.09950101051558       -0.81686481166879        0.67978589895626
C            1.25249498597657       -1.00359225786347       -0.03815515696128
C            1.83056883113082        0.37257327837242       -0.41383079512751
C            0.68316249313039        1.38589709743797       -0.63712173040611
O           -0.46375585908353        0.76328619301699       -1.15200376658938
O            0.44923150775997        2.06397197044155        0.55419605563054
O            2.66698728731287        0.30677640225056       -1.53487473095439
O            2.17643061892417       -1.66597954017690        0.79426898629613
O           -0.64693498534894       -2.05503392438250        1.08519801545376
O           -3.21259457088082        1.09522336102505       -0.29753454745655
H           -2.70075456330060       -0.32666144176666        1.12309087021682
H           -1.86891504217329        1.24964758294047        1.16750228140503
H           -1.49965498671212       -0.94600077297819       -0.93991231644680
H            0.06457889396037       -0.16602225885125        1.54766568426069
H            1.08042328979082       -1.58097435758975       -0.95868943863637
H            2.45731440598187        0.71945126854765        0.41069972410434
H            0.98606978033927        2.07822041146339       -1.43835317759040
H           -0.22974398372962        2.73804299587440        0.40778123687023
H            2.14706673049005        0.03181145555254       -2.30060913601263
H            1.99274963728923       -2.61248053042099        0.78460855870258
H           -0.13262486596728       -2.37871225306463        1.83944536527981
H           -3.58281595927307        0.44432155694229       -0.91133527796660
24
 energy: -43.352990837526 gnorm: 0.004977919258 xtb: 6.6.0 (conda-forge)
C           -2.25517158876271        0.46854135360568        0.51437613625388
C           -1.09760096567496       -0.16497832725319       -0.28019590874853
C           -0.09856382842881       -0.81594322659343        0.68041900642962
C            1.25053630752566       -1.00426553337987       -0.04144996952721
C            1.82931407003145        0.37264296346846       -0.41292228462493
C            0.68127842912888        1.38575644248369       -0.63933338206467
O           -0.46788637301352        0.76320754286372       -1.15210104345375
O            0.44817341124641        2.06712364948766        0.54954855394838
O            2.67326521131232        0.30937155270570       -1.52786169312425
O            2.17486984942292       -1.67229552142248        0.78499658806826
O           -0.64330555967092       -2.05089588697551        1.09367223656443
O           -3.21509242838458        1.09257340204237       -0.29252658992610
H           -2.70015242744083       -0.32656754552789        1.12846386405413
H           -1.87042213690467        1.24989508376733        1.17170420595020
H           -1.50394660624469       -0.94643537348027       -0.93602131839666
H            0.06813869869503       -0.16107069748499        1.54581782253952
H            1.07526837961419       -1.57786395156970       -0.96481678673831
H            2.44990974239668        0.72067040236368        0.41680683659973
H            0.98593592515060        2.07719393382291       -1.44162336450721
H           -0.24049613312477        2.73036041721696        0.40539612520845
H            2.16109708920511        0.02692066708040       -2.29703520906624
H            1.97855506234564       -2.61671848932686        0.78221156601780
H           -0.11693829843820       -2.37744452854193        1.83504729867930
H           -3.56686582998625        0.45012167064757       -0.92247269013585
24
 energy: -43.353095852137 gnorm: 0.005047585184 xtb: 6.6.0 (conda-forge)
C           -2.25833987871050        0.46697018236625        0.52191693032973
C           -1.10000810769716       -0.16388379093680       -0.27171062088426
C           -0.09672030282536       -0.81442772061589        0.68569182456229
C            1.24601038460802       -1.00404039527637       -0.04547342901168
C            1.82692079337359        0.37318028954983       -0.40928866644632
C            0.67954581135508        1.38591734355827       -0.64312114277702
O           -0.47414022862038        0.76312591211484       -1.14855488628685
O            0.44746572366789        2.07928743939489        0.53945209233868
O            2.68079266274825        0.31285138408369       -1.51563080680142
O            2.17215802267268       -1.68428157715271        0.76796171174541
O           -0.63792673634381       -2.04565758979943        1.10734204936160
O           -3.21580202488036        1.09044576174586       -0.28632183203918
H           -2.70530382653043       -0.33049325942592        1.13280884930853
H           -1.87800036545707        1.24551561329237        1.18573613052334
H           -1.50817842956791       -0.94695669973199       -0.92590739563319
H            0.07596896700591       -0.15584118403833        1.54827986666870
H            1.06345894334369       -1.56944522148484       -0.97391950337783
H            2.43840222421357        0.72326187980140        0.42710212738593
H            0.98667903778359        2.07186893694109       -1.45085935784232
H           -0.25360916982262        2.72619968049001        0.39048083360785
H            2.17869671596971        0.01992885094925       -2.28743968546254
H            1.95789518140313       -2.62415842432047        0.76913310148539
H           -0.09147661534612       -2.37942435682272        1.82897574618207
H           -3.53458878234340        0.45995694531770       -0.94655393693689
24
 energy: -43.353142890578 gnorm: 0.004909557224 xtb: 6.6.0 (conda-forge)
C           -2.26038146288565        0.46577456712618        0.52661838846999
C           -1.10104012250791       -0.16508430839306       -0.26372354567692
C           -0.09438382823555       -0.81343638287865        0.69167896927565
C            1.24274918109022       -1.00311957527424       -0.04838472726259
C            1.82523177788095        0.37447706084703       -0.40447102709502
C            0.67797951357503        1.38530494341431       -0.64620702694312
O           -0.47818012468553        0.76073475254794       -1.14454351663631
O            0.44512448617166        2.09121981979490        0.53030908410461
O            2.68792388624447        0.31708847670823       -1.50361822397199
O            2.17095247429718       -1.69573658924597        0.75234205400267
O           -0.63291971422751       -2.04325532276457        1.11781347001272
O           -3.21110381851340        1.09110708198892       -0.28808644323198
H           -2.71352568187033       -0.33235707820639        1.13305438269775
H           -1.88298851504169        1.24171671805345        1.19612722954580
H           -1.50907965753376       -0.95030649991839       -0.91602763459585
H            0.08269719245789       -0.15298650450929        1.55237778817308
H            1.05215822545947       -1.55984694736677       -0.98107801179999
H            2.42868332099149        0.72541537533829        0.43735924802091
H            0.98563229027859        2.06461552714575       -1.45992941285406
H           -0.26538344255672        2.72619301375283        0.37345479489259
H            2.19393953445883        0.01604810704222       -2.27702756695068
H            1.94489779376564       -2.63210023881339        0.75168707793159
H           -0.07400234610533       -2.38229280610220        1.82639055151626
H           -3.51508096250807        0.47072680971284       -0.95601590162511
24
 energy: -43.353182150184 gnorm: 0.003923903207 xtb: 6.6.0 (conda-forge)
C           -2.26310638774312        0.46290346943350        0.53407323447746
C           -1.10300672931791       -0.16679717673789       -0.25536042769347
C           -0.09228366476838       -0.81131142477896        0.69773372644695
C            1.23930992737687       -1.00224089831882       -0.05191603132315
C            1.82267828496527        0.37599773650342       -0.40064390017472
C            0.67457653176926        1.38395683629443       -0.65027170478896
O           -0.48328848622910        0.75713851257588       -1.14071444634932
O            0.44186354318826        2.10123890116799        0.52057445472718
O            2.69491349570128        0.32191255957307       -1.49238388198937
O            2.17015304242339       -1.70625061728701        0.73621697029221
O           -0.62810980405098       -2.03994624213923        1.13043027726387
O           -3.20757910357037        1.09709708040995       -0.28243808142307
H           -2.72257008413383       -0.33854055126768        1.13169962664071
H           -1.88812763056847        1.23293899054665        1.21180507594217
H           -1.51025327512178       -0.95464184821185       -0.90497356318241
H            0.08920336370428       -0.14812652363720        1.55546974847386
H            1.03978910864285       -1.55053580700892       -0.98782275124407
H            2.41825240836540        0.72728409649281        0.44631679161189
H            0.98076157939426        2.05601102390361       -1.47040488341206
H           -0.27673506331330        2.72618863173398        0.35787583621072
H            2.21036105298138        0.01131702270241       -2.26788495490360
H            1.93417919242997       -2.64002918536990        0.73484234233708
H           -0.05684257106979       -2.38323454491719        1.82656106538776
H           -3.48423873105543        0.48756995833691       -0.97868452332764
24
 energy: -43.353214990356 gnorm: 0.002958088403 xtb: 6.6.0 (conda-forge)
C           -2.26342592396785        0.46156877681203        0.53574079368715
C           -1.10374884396939       -0.17012917611708       -0.25311660731696
C           -0.09164178422368       -0.81159631090778        0.69984449812772
C            1.23867084327430       -1.00205752385792       -0.05294129952479
C            1.82109234576810        0.37712336423132       -0.39868034237557
C            0.67122932454682        1.38200671431374       -0.65229161996163
O           -0.48501425473198        0.75236605869791       -1.14064333504340
O            0.43701888461483        2.10219558797913        0.51670406069034
O            2.69784768467813        0.32546919196953       -1.48744018143905
O            2.17085994897400       -1.70854199197745        0.73109842998581
O           -0.62585779338534       -2.04118344922721        1.13469200784797
O           -3.20203910984960        1.10509387109339       -0.28218030726060
H           -2.72926256070381       -0.33981351060159        1.12783148182786
H           -1.88671815295434        1.22719929250425        1.21706271418529
H           -1.51034226950518       -0.95959145797453       -0.90056168907731
H            0.09059393263028       -0.14779347971449        1.55637725628353
H            1.03620243913562       -1.54725924087027       -0.98920829897001
H            2.41326631566646        0.72866024506232        0.45009676073146
H            0.97562254195219        2.05135146185502       -1.47425162300914
H           -0.27788023107815        2.72948264654788        0.35112868736476
H            2.21773164881180        0.01140758603309       -2.26422362446527
H            1.93756040094324       -2.64279296660365        0.72563687494234
H           -0.05423101370070       -2.38324432086280        1.83091966266009
H           -3.47763437292575        0.49997863161512       -0.98149429989057
24
 energy: -43.353267885584 gnorm: 0.003479705192 xtb: 6.6.0 (conda-forge)
C           -2.26402205635063        0.45901042399621        0.54141301648508
C           -1.10697707695250       -0.18074278854322       -0.24560882063493
C           -0.08952297650309       -0.81358352418531        0.70607034992187
C            1.23682206051656       -1.00230699363198       -0.05626274148457
C            1.81564467743474        0.38028185841178       -0.39341857668957
C            0.66011445315990        1.37612710476220       -0.65953434186128
O           -0.49156603494525        0.73612187121510       -1.14140340432515
O            0.42298850337419        2.10461822027554        0.50401135967347
O            2.70761095411135        0.33637848904474       -1.47138597691736
O            2.17338634132813       -1.71545903108586        0.71530358505178
O           -0.61809520060534       -2.04464741556502        1.14881614650190
O           -3.18242164904614        1.13141462957058       -0.28082648082919
H           -2.75121423915350       -0.34141935390020        1.11644706312507
H           -1.88085017407536        1.21006760089585        1.23484227272544
H           -1.51408252945219       -0.97502631157366       -0.88586489789292
H            0.09562637962383       -0.14696504696412        1.55876130698075
H            1.02598511258288       -1.53825062150365       -0.99482811681634
H            2.39557345116781        0.73436089993973        0.46235613978116
H            0.95925296375215        2.03830112010147       -1.48758303274916
H           -0.29002884919087        2.73447165370128        0.33342061624180
H            2.24305860624898        0.01008585746490       -2.25292108025800
H            1.94591675226661       -2.65156969655589        0.69908223127681
H           -0.03995560913697       -2.38383615418762        1.84289067123235
H           -3.45334386015526        0.54246720831705       -0.99367728853900
24
 energy: -43.353291047866 gnorm: 0.003917558127 xtb: 6.6.0 (conda-forge)
C           -2.26333247384055        0.45821784316903        0.54434680438684
C           -1.10889595614668       -0.18720633532968       -0.24228736880241
C           -0.08835291862313       -0.81700387777408        0.70809776556914
C            1.23691232670954       -1.00290952955062       -0.05727733013028
C            1.81238939558822        0.38187787089265       -0.39098392364655
C            0.65335409356353        1.37261956894827       -0.66326654774081
O           -0.49551591486385        0.72607247590047       -1.14320196059949
O            0.41337795596806        2.10504814606206        0.49693397726764
O            2.71127951708564        0.34178685649939       -1.46325931786052
O            2.17550695165660       -1.71733511209741        0.70966442807457
O           -0.61218336720995       -2.04908098215175        1.15332333698177
O           -3.16911779177951        1.14755112933641       -0.27884348193421
H           -2.76359644237238       -0.34085120768276        1.10991214318055
H           -1.87605382361469        1.19969328823454        1.24586749340788
H           -1.51816395349005       -0.98343606251414       -0.87866521722741
H            0.09683908539083       -0.14907959015651        1.55958578698857
H            1.02416292580230       -1.53521300027953       -0.99746789511197
H            2.38553238036997        0.73875956935893        0.46828531129663
H            0.95087192403768        2.03194699588772       -1.49417084627167
H           -0.29618976787077        2.73776696883113        0.32294300137892
H            2.25443158253257        0.01016987426986       -2.24674818093222
H            1.95382272588735       -2.65481314475477        0.68542681283502
H           -0.03683353054614       -2.38233215625782        1.85076166706901
H           -3.44034492423456        0.56765041115847       -0.99887645817894
24
 energy: -43.353321699426 gnorm: 0.002358704344 xtb: 6.6.0 (conda-forge)
C           -2.26186294219819        0.45875440385107        0.54829107630172
C           -1.11223019296375       -0.19570157992350       -0.23813737555494
C           -0.08753169429727       -0.82264979124562        0.71014630024375
C            1.23671765806575       -1.00399923769478       -0.05853333630175
C            1.80759444293072        0.38386545770914       -0.38787884621383
C            0.64364307006864        1.36755149498776       -0.66862971910518
O           -0.50113820352236        0.71111266785556       -1.14723468287819
O            0.39870615706028        2.10468587442641        0.48635907691776
O            2.71612985158385        0.34938262550240       -1.45132387863075
O            2.17775211780369       -1.71887641303061        0.70370976055231
O           -0.60501518449388       -2.05485543400113        1.15929525446145
O           -3.14980210704093        1.17065246759632       -0.27415003343982
H           -2.77964948910907       -0.33758079298858        1.10208514422991
H           -1.86842471803818        1.18647482658245        1.26092969046058
H           -1.52643997409928       -0.99415411329712       -0.86877091778158
H            0.09853845461624       -0.15236700286216        1.55996469496300
H            1.02330880651214       -1.53256023325878       -1.00119867262663
H            2.37036204858489        0.74540808866104        0.47673338192192
H            0.93975383182433        2.02363025097435       -1.50330322055026
H           -0.30923208276531        2.73812724929328        0.30870194236574
H            2.27104700933321        0.00934287025160       -2.23771130859757
H            1.96268535149540       -2.65790765997406        0.66981644816740
H           -0.02489477710097       -2.38343062907011        1.85730639740474
H           -3.42011743424989        0.60499460965492       -1.00636717630970
24
 energy: -43.353342406566 gnorm: 0.001982270788 xtb: 6.6.0 (conda-forge)
C           -2.25931214364665        0.46004164858840        0.55136262039396
C           -1.11430105219752       -0.20140546244173       -0.23616965338539
C           -0.08703834088886       -0.82793381467310        0.71028985271122
C            1.23748001504123       -1.00443990757504       -0.05889173891600
C            1.80450003895270        0.38558839975325       -0.38601322268820
C            0.63745747949636        1.36433692418202       -0.67285252463435
O           -0.50423408688664        0.70005697463210       -1.15113037773319
O            0.38760568918601        2.10478872045960        0.47786784500393
O            2.71868036127843        0.35494046224001       -1.44338587218368
O            2.17964600766234       -1.71869086500079        0.70247454475232
O           -0.59937320120776       -2.06069920616275        1.15947933524239
O           -3.13467976661090        1.18799897377413       -0.26802597342172
H           -2.78836643957813       -0.33416395152697        1.09781515561713
H           -1.86050050174335        1.17705527902020        1.27202101854849
H           -1.53350313294218       -1.00050958031557       -0.86291519268741
H            0.09813075580110       -0.15666302098192        1.56001759313753
H            1.02598456738604       -1.53200065644036       -1.00310678006646
H            2.36004065708129        0.75059208241342        0.48195892349282
H            0.93273931526335        2.01836153682068       -1.51029489728998
H           -0.32511307236447        2.73360948204313        0.29732321089951
H            2.28152490869530        0.00846197114477       -2.23120036987319
H            1.96845068492111       -2.65839076121376        0.66224890143581
H           -0.02084451975685       -2.38419953368833        1.85998987609985
H           -3.40507422294187        0.63316430494845       -1.00876227445530
24
 energy: -43.353360574267 gnorm: 0.002529172066 xtb: 6.6.0 (conda-forge)
C           -2.25666685591042        0.46130730081080        0.55572504723901
C           -1.11660913378503       -0.20621134019044       -0.23422986819698
C           -0.08697988562658       -0.83246554465140        0.71041106194116
C            1.23774778547442       -1.00410540706754       -0.05951778864326
C            1.80135954973774        0.38776637303125       -0.38393072961578
C            0.63147544047111        1.36113863156328       -0.67777142622684
O           -0.50747362703906        0.68971855385644       -1.15490451245135
O            0.37558693437910        2.10674072647631        0.46767869052563
O            2.72199045373247        0.36095277205487       -1.43499282934987
O            2.18137298144377       -1.71797571619735        0.70167495064367
O           -0.59507315441270       -2.06631942626091        1.15886786637891
O           -3.11997531123561        1.20612964443326       -0.25947713307151
H           -2.79556837196302       -0.33207854719294        1.09431572336782
H           -1.85181636660747        1.16680127658923        1.28467617513938
H           -1.54053298700068       -1.00573177486342       -0.85718087005472
H            0.09791395556434       -0.16122639939077        1.56061999660225
H            1.02836796025967       -1.53120701745339       -1.00470804613959
H            2.34955465241583        0.75555777749664        0.48752072915012
H            0.92623816490164        2.01160397754463       -1.51852427180191
H           -0.34458692606684        2.72568351050223        0.28262176211345
H            2.29343962269565        0.00644534385356       -2.22416318448482
H            1.97084161578911       -2.65755014119011        0.65890755281577
H           -0.01308448947201       -2.38912418615340        1.85770128190266
H           -3.38762200774533        0.66404961239897       -1.01122017778310
24
 energy: -43.353373060213 gnorm: 0.002054280177 xtb: 6.6.0 (conda-forge)
C           -2.25458738191001        0.46225570134836        0.55730865309803
C           -1.11701146380398       -0.20792848575854       -0.23463834185386
C           -0.08714433414798       -0.83494931390341        0.70926378649988
C            1.23888155940661       -1.00369294283301       -0.05901087811199
C            1.80029772778258        0.38888730884198       -0.38370557213279
C            0.62953627992848        1.35997993425144       -0.68031144685395
O           -0.50796384492624        0.68581715436686       -1.15704587055933
O            0.37073515983708        2.10716907071013        0.46332808831213
O            2.72213712377270        0.36288585341470       -1.43358381821209