24
 energy: -42.152306949622 gnorm: 0.136910054001 xtb: 6.6.0 (conda-forge)
C            3.26300000000000        0.66560000000000       -0.21270000000000
N            2.13090000000000       -0.25520000000000       -0.19970000000000
C            2.16940000000000       -1.59870000000000       -0.37710000000000
N            0.94220000000000       -2.17970000000000       -0.32860000000000
C            0.12290000000000       -1.13140000000000       -0.10850000000000
C            0.82680000000000        0.02100000000000       -0.03340000000000
C            0.17640000000000        1.23210000000000        0.16280000000000
O            0.83070000000000        2.30980000000000        0.21200000000000
N           -1.19410000000000        1.22160000000000        0.29150000000000
C           -1.89560000000000        0.03160000000000        0.18110000000000
O           -3.15820000000000        0.04070000000000        0.23340000000000
N           -1.23240000000000       -1.16450000000000        0.00710000000000
C           -1.96780000000000       -2.42820000000000       -0.13450000000000
C           -1.92340000000000        2.48920000000000        0.46330000000000
H            4.21460000000000        0.10900000000000       -0.34870000000000
H            3.14930000000000        1.38690000000000       -1.04900000000000
H            3.30900000000000        1.21690000000000        0.74980000000000
H            3.08170000000000       -2.15660000000000       -0.54540000000000
H           -1.32860000000000       -3.29890000000000        0.12490000000000
H           -2.84180000000000       -2.45190000000000        0.55100000000000
H           -2.32080000000000       -2.53760000000000       -1.18150000000000
H           -2.83900000000000        2.34400000000000        1.07560000000000
H           -2.20900000000000        2.89180000000000       -0.53120000000000
H           -1.30610000000000        3.24260000000000        0.99770000000000
24
 energy: -42.167263663416 gnorm: 0.059080999944 xtb: 6.6.0 (conda-forge)
C            3.26236423162109        0.64653724153125       -0.21442625794335
N            2.14279936554338       -0.26556850797639       -0.20319147459783
C            2.16944689915810       -1.60191867531950       -0.37661231974700
N            0.96180762540384       -2.17230898702117       -0.32656695215364
C            0.12174167640337       -1.13538653591696       -0.11074183572982
C            0.82987349311739        0.04416418147193       -0.03113845185321
C            0.17967692080552        1.28051883839188        0.16892274167760
O            0.79191705480928        2.36318845102291        0.22691261118195
N           -1.19525898500806        1.21577261428831        0.29054708739140
C           -1.90633746365881        0.02799602874872        0.18037291422712
O           -3.14140702720494        0.03787276070541        0.24420600628153
N           -1.23761099572892       -1.16117952275113        0.00797148452677
C           -1.97048950951610       -2.41132152213020       -0.13318274100662
C           -1.92795560420714        2.46553665186064        0.46019251117244
H            4.19101394680868        0.08790854882339       -0.34908829078213
H            3.14206729061993        1.36854411671741       -1.02771728623734
H            3.29601011981962        1.20140707937336        0.72783714852364
H            3.07062154335955       -2.15997392870636       -0.54176190514379
H           -1.30526924099397       -3.24209083560349        0.11922820324109
H           -2.83317006473025       -2.41125464913521        0.53962421746637
H           -2.32048853456320       -2.52553800392842       -1.16344886343515
H           -2.82922245861841        2.29055704421718        1.05471841016020
H           -2.20875590715302        2.86983211777868       -0.51694323529421
H           -1.28327437608695        3.18680549355774        0.97418627807401
24
 energy: -42.170632338176 gnorm: 0.014933487787 xtb: 6.6.0 (conda-forge)
C            3.26289306574479        0.63202145729619       -0.21514405687137
N            2.15037626137998       -0.27494372083419       -0.20626165030209
C            2.16465150868021       -1.60555783701578       -0.37428465806104
N            0.96872920775098       -2.16199145047664       -0.32649824565079
C            0.12227488823629       -1.12982371818914       -0.11500402663036
C            0.83285586481837        0.06354667605020       -0.03236364253321
C            0.19078192065661        1.31846563655785        0.16854878644443
O            0.76420587115021        2.40571092624618        0.23788949469212
N           -1.18803575886173        1.20657925509510        0.28364797908078
C           -1.91483627536208        0.02674244947171        0.17899089387489
O           -3.13403883918381        0.04039662909723        0.25280489375568
N           -1.23593062279651       -1.15181777719017        0.00607206838383
C           -1.96775459417772       -2.39568311044123       -0.13168144870748
C           -1.93245244621613        2.44199800600371        0.45816164848404
H            4.17955486656695        0.06973509892123       -0.34879971399037
H            3.14248568987803        1.35401486979991       -1.02094788775595
H            3.29212601196588        1.18641239730777        0.72086860954816
H            3.05999034455593       -2.16808917060221       -0.53568052313504
H           -1.29022448445891       -3.20537831149620        0.11830022835209
H           -2.82358541080658       -2.37843563435463        0.53719219151982
H           -2.32108129547922       -2.51319512508630       -1.15405654830033
H           -2.82391989840035        2.24205627437138        1.04443923085441
H           -2.21924344961056        2.84803680397854       -0.50979678259044
H           -1.27972242603065        3.14929937548948        0.96350315953825
24
 energy: -42.170981949784 gnorm: 0.007407553731 xtb: 6.6.0 (conda-forge)
C            3.26929644674503        0.62565785494027       -0.21412486866353
N            2.15357329239779       -0.27712015351596       -0.20867558903765
C            2.16185731541985       -1.60733300358375       -0.37364019746083
N            0.96384078889413       -2.15781804282960       -0.32711695132198
C            0.12230911007481       -1.12219347102968       -0.12122285326651
C            0.83530367326640        0.07128027531644       -0.03824636737293
C            0.19739345598467        1.33052926695959        0.16208254398540
O            0.75584847283520        2.42203298828641        0.23837438032996
N           -1.18308541361161        1.20439806269327        0.27434918428818
C           -1.91656953680572        0.02922803635933        0.17379840758358
O           -3.13579901096631        0.04430953471418        0.25832879479956
N           -1.23374031188908       -1.14477225132155       -0.00021152690731
C           -1.96542095805722       -2.39002300794513       -0.12991286555848
C           -1.93825422062974        2.43341722344964        0.45953576967447
H            4.18506005196956        0.05866086704187       -0.34634952454381
H            3.15389958015533        1.34857531601336       -1.02112997211582
H            3.29902825205593        1.17863896095999        0.72379781950267
H            3.05647924275151       -2.17441782394575       -0.52971772273863
H           -1.28548115131018       -3.19741866343308        0.12148806774569
H           -2.81968469204103       -2.36576496295405        0.54239595875549
H           -2.32325157571859       -2.51086647207545       -1.15157998133909
H           -2.82622347779204        2.21637733883213        1.04730058326821
H           -2.23520801695623        2.84057306745712       -0.50628220970888
H           -1.29107131677246        3.14414905961038        0.96665912010224
24
 energy: -42.171095591443 gnorm: 0.003247308749 xtb: 6.6.0 (conda-forge)
C            3.27675647292389        0.61976555217577       -0.21256435111788
N            2.15566172196260       -0.27765545789073       -0.21132174628595
C            2.15940080056271       -1.60804447794117       -0.37266551504402
N            0.95755702454306       -2.15356936007636       -0.32910094054369
C            0.12191976268823       -1.11371461317060       -0.12801004387198
C            0.83723176995459        0.07792052030766       -0.04544647825478
C            0.20198301626532        1.33835135916392        0.15541087768426
O            0.74858666709365        2.43366275330739        0.23556904508898
N           -1.18026497197600        1.20411599330864        0.26507878682721
C           -1.91716397920803        0.03162215247416        0.17131174280906
O           -3.13683061097081        0.04705360623611        0.26096218227265
N           -1.23230843588905       -1.13899814738534       -0.00765746797466
C           -1.96288018451463       -2.38707785882437       -0.12843287117838
C           -1.94441684568155        2.42848270082985        0.46147924307520
H            4.19151591360059        0.04796122224968       -0.34285878005937
H            3.16930600182640        1.34402800156375       -1.02052228851075
H            3.30860680532447        1.17053639200267        0.72746743505736
H            3.05332135487206       -2.17908971354237       -0.52343784414721
H           -1.28258031744047       -3.19450771688890        0.12385588314573
H           -2.81480102754761       -2.35923480616160        0.54805632670463
H           -2.32589501124946       -2.51215686977231       -1.14868920863820
H           -2.82733096459342        2.19894011457607        1.05338081429672
H           -2.25341590740048        2.83630872705656       -0.50133964373291
H           -1.30385905514607        3.14539992640152        0.96937484239800
24
 energy: -42.171113323404 gnorm: 0.002116320487 xtb: 6.6.0 (conda-forge)
C            3.27955653726184        0.61750960196651       -0.21131634575250
N            2.15571262519014       -0.27691233014434       -0.21243584497356
C            2.15859851422807       -1.60739388747848       -0.37241976052990
N            0.95565704466229       -2.15177195591396       -0.32964350296293
C            0.12147709106182       -1.11037719347899       -0.13115439136557
C            0.83735751247974        0.08033600239860       -0.04930120345634
C            0.20193012337815        1.33988901127241        0.15235299541768
O            0.74572048205202        2.43620181400738        0.23360777155174
N           -1.18119355357603        1.20505869871887        0.26122593301668
C           -1.91778363344754        0.03251939134581        0.16941221635532
O           -3.13738091368223        0.04680599848531        0.26185564718341
N           -1.23259709433884       -1.13766499813923       -0.01196483623472
C           -1.96173418884217       -2.38718862646068       -0.12791507908564
C           -1.94662421095090        2.42824836854547        0.46257302157239
H            4.19294124676980        0.04302483010390       -0.34098619642867
H            3.17590484038415        1.34264541775961       -1.01896787347087
H            3.31249621242042        1.16690716542419        0.72952626657163
H            3.05214960098795       -2.17936698629449       -0.52128897611534
H           -1.28040833190433       -3.19386548835068        0.12499660428076
H           -2.81219386238622       -2.35900227596983        0.55047966097719
H           -2.32653541445747       -2.51490123630101       -1.14715997199258
H           -2.82640470092348        2.19671386781778        1.05794658517496
H           -2.26044838932050        2.83607374726311       -0.49856534977490
H           -1.30609753704667        3.14661106342274        0.96904263004173
24
 energy: -42.171125676341 gnorm: 0.001258990987 xtb: 6.6.0 (conda-forge)
C            3.28245393432703        0.61495820575242       -0.20952318784708
N            2.15538458717970       -0.27562984745217       -0.21387333697847
C            2.15776734216342       -1.60630607703361       -0.37180547824289
N            0.95413553394051       -2.14971983345328       -0.33083608994884
C            0.12074771433951       -1.10696927898328       -0.13515590340110
C            0.83710553108628        0.08302665534571       -0.05444754314914
C            0.20078883061339        1.34116560005797        0.14863415313585
O            0.74269058368487        2.43823881584956        0.23123901549907
N           -1.18333084894958        1.20658181573912        0.25697975647872
C           -1.91879552864876        0.03343778037547        0.16747453377460
O           -3.13809824158001        0.04603491053208        0.26322731003885
N           -1.23344510077501       -1.13658604873347       -0.01774815014295
C           -1.96033393164681       -2.38771617497818       -0.12763557197899
C           -1.94890383259812        2.42867127336460        0.46369285483872
H            4.19351456997396        0.03686215354490       -0.33877229857948
H            3.18330330910272        1.34182198820640       -1.01597368903330
H            3.31656829167260        1.16222623728941        0.73242010908753
H            3.05099175640764       -2.17902155670876       -0.51821322497838
H           -1.27671261307784       -3.19239356657974        0.12588802542350
H           -2.80858173291105       -2.35942220141389        0.55335741665257
H           -2.32758729295596       -2.51942777785658       -1.14525809806498
H           -2.82404500519657        2.19618933349599        1.06505618373638
H           -2.26955104122489        2.83619792197444       -0.49503636193107
H           -1.30596681492706        3.14787967166488        0.96620957561090
24
 energy: -42.171131171385 gnorm: 0.001228567023 xtb: 6.6.0 (conda-forge)
C            3.28408477251172        0.61330299742352       -0.20756372925943
N            2.15500491829538       -0.27462019759461       -0.21514977267363
C            2.15723013032634       -1.60553661819194       -0.37135067702246
N            0.95373516606036       -2.14862014814774       -0.33177360683283
C            0.12002130914420       -1.10528371088675       -0.13880549101811
C            0.83664201194261        0.08473429967200       -0.05906365216101
C            0.19941088526925        1.34201175175693        0.14534363154865
O            0.74134344902345        2.43908672048553        0.22943919249053
N           -1.18515906855929        1.20781048935374        0.25358406207264
C           -1.91964866005734        0.03413605643509        0.16550043731278
O           -3.13858602182344        0.04553671985554        0.26514348312303
N           -1.23434364797813       -1.13584629282400       -0.02295915049164
C           -1.95935010669965       -2.38809655732368       -0.12757456078375
C           -1.95013857769330        2.42910925132938        0.46441309671395
H            4.19321990125588        0.03274859419974       -0.33732121402207
H            3.18776985577650        1.34248635361490       -1.01205624923281
H            3.31889900528723        1.15812319958385        0.73570296796421
H            3.05050609455301       -2.17860897819138       -0.51526703324321
H           -1.27332223391160       -3.19052936362961        0.12605773011884
H           -2.80569030794555       -2.35958936696112        0.55561545711522
H           -2.32904509921529       -2.52345287583132       -1.14364502075487
H           -2.82042742688553        2.19680700449291        1.07285466162438
H           -2.27856440632551        2.83531292304811       -0.49210476095202
H           -1.30349194235132        3.14907774833092        0.96088019836362
24
 energy: -42.171135677259 gnorm: 0.000877792377 xtb: 6.6.0 (conda-forge)
C            3.28429617061034        0.61291281664103       -0.20595818416507
N            2.15489021837682       -0.27436033833896       -0.21579760146927
C            2.15717747816742       -1.60552170322454       -0.37073547217414
N            0.95392776709642       -2.14856746877056       -0.33262645782559
C            0.11963937607189       -1.10530555351367       -0.14118821108231
C            0.83632208978382        0.08508811113408       -0.06178023920723
C            0.19884120038902        1.34242609425888        0.14325444698352
O            0.74183821772861        2.43903708446795        0.22815016342714
N           -1.18551208568747        1.20824928265615        0.25154695674904
C           -1.91981502422422        0.03445511368252        0.16449982560257
O           -3.13851653753887        0.04578411960693        0.26628355475520
N           -1.23473662724120       -1.13527598242401       -0.02604726810945
C           -1.95916392972137       -2.38791993315103       -0.12782085090757
C           -1.95031833051807        2.42899672851605        0.46460406344938
H            4.19292449209861        0.03203136669124       -0.33701795082824
H            3.18836958815380        1.34422946589211       -1.00852545969373
H            3.31925832025655        1.15541195092223        0.73868661256310
H            3.05077418255968       -2.17863979160906       -0.51287530133859
H           -1.27186038535311       -3.18921614379538        0.12536299447101
H           -2.80429624341490       -2.35904726323240        0.55686892840633
H           -2.33083411508933       -2.52499658316112       -1.14295084817877
H           -2.81593920022896        2.19736661801983        1.08022439278635
H           -2.28671132036542        2.83234948428059       -0.49045616293083
H           -1.30045530191009        3.15061252445115        0.95419806871717
