20
 energy: -32.759261747514 gnorm: 0.121035709379 xtb: 6.6.0 (conda-forge)
C            3.78490000000000       -0.06170000000000       -0.22100000000000
C            2.35540000000000        0.36990000000000       -0.26380000000000
O            2.07960000000000        1.56440000000000       -0.55750000000000
N            1.31150000000000       -0.59580000000000       -0.06480000000000
C           -0.07810000000000       -0.26150000000000        0.09560000000000
C           -0.48030000000000        0.91280000000000        0.75870000000000
C           -1.83890000000000        1.20140000000000        0.92160000000000
C           -2.80950000000000        0.31810000000000        0.43910000000000
C           -2.41560000000000       -0.86290000000000       -0.20320000000000
C           -1.05790000000000       -1.15400000000000       -0.36630000000000
O           -4.15900000000000        0.61970000000000        0.60730000000000
H            4.44560000000000        0.80880000000000       -0.02250000000000
H            4.06290000000000       -0.51600000000000       -1.19460000000000
H            3.93030000000000       -0.80950000000000        0.58650000000000
H            1.57000000000000       -1.60710000000000       -0.12210000000000
H            0.25030000000000        1.59390000000000        1.17360000000000
H           -2.13780000000000        2.10840000000000        1.43160000000000
H           -3.15970000000000       -1.55630000000000       -0.57410000000000
H           -0.76760000000000       -2.07170000000000       -0.86250000000000
H           -4.88610000000000       -0.00070000000000        0.27040000000000
20
 energy: -32.775321269771 gnorm: 0.045351134925 xtb: 6.6.0 (conda-forge)
C            3.74211484747199       -0.08639715337779       -0.21538278370589
C            2.31520243056116        0.38162762010796       -0.28359558872673
O            2.04545174611718        1.54970482426731       -0.51825408257415
N            1.30999268906253       -0.56034870912168       -0.06022049600851
C           -0.07092471871670       -0.25576211062374        0.09877836733605
C           -0.48403294465523        0.90368214012569        0.75541497484984
C           -1.83252213635865        1.18702868969234        0.91494677458745
C           -2.79902826383595        0.31009551143838        0.43325764081426
C           -2.39570528213493       -0.86249120516300       -0.20048871149328
C           -1.04456869429945       -1.14320782670354       -0.36323467642994
O           -4.12323871730588        0.63223863237844        0.61536542731146
H            4.38958471576126        0.77564483046484       -0.03086895648301
H            4.04102119844698       -0.52140520089893       -1.17407684035876
H            3.90851029161372       -0.82633110943508        0.57340496673455
H            1.56479305786235       -1.54670022199641       -0.11792587395442
H            0.24569018582380        1.59441234685527        1.14714051233744
H           -2.13697996819798        2.09122024906528        1.42055319692507
H           -3.13867386741827       -1.55633699786801       -0.57043683423179
H           -0.75385323112205       -2.05957188715077       -0.85803366686749
H           -4.78283333867589       -0.00690242205654        0.26565664993784
20
 energy: -32.779192029622 gnorm: 0.015864716621 xtb: 6.6.0 (conda-forge)
C            3.70054434672375       -0.11143204308511       -0.21821447904093
C            2.28049971264257        0.41206009624317       -0.25792004454103
O            2.02768763791779        1.56511384431638       -0.48945834666351
N            1.31110272836201       -0.52883855767085       -0.04904677146388
C           -0.06287234648219       -0.24537639145482        0.09497472719423
C           -0.48091610610371        0.90905340358409        0.74683918517901
C           -1.82263532848649        1.18186448214097        0.91102069118245
C           -2.78555002800319        0.30149646006300        0.43265684977917
C           -2.37508367656189       -0.86482596822244       -0.20033921954485
C           -1.02776153305390       -1.13514599364037       -0.36626627423452
O           -4.09116892724641        0.63258969758014        0.62151450750402
H            4.35424007439770        0.73888112002418       -0.04257397544783
H            3.97867750252290       -0.54708777716912       -1.17529569886871
H            3.85286965571686       -0.84904614363713        0.56260569001092
H            1.56519319728441       -1.50141065842241       -0.10485007781782
H            0.25015150784627        1.60340668227781        1.12563384280930
H           -2.13768943977381        2.08082954901778        1.41561743201765
H           -3.11532364151850       -1.56234712839816       -0.56969125307091
H           -0.73280383893763       -2.05066644244576       -0.85935564502899
H           -4.68916149724653       -0.02891823110134        0.25414886004624
20
 energy: -32.779993283386 gnorm: 0.009303063127 xtb: 6.6.0 (conda-forge)
C            3.68541950690174       -0.12571202606695       -0.22791146344380
C            2.27222561172373        0.42641378404215       -0.26423276062697
O            2.03341161539661        1.60129080063678       -0.43623384387657
N            1.30919175081903       -0.51451128183991       -0.04624851791859
C           -0.06119064036577       -0.23710062328901        0.10377693896403
C           -0.47971815979355        0.92336249145397        0.74618815247583
C           -1.82106612909530        1.19026167469490        0.90778633465534
C           -2.77923410284747        0.30066773353736        0.43248550568931
C           -2.36487424310229       -0.86674460686668       -0.19583427344857
C           -1.01759104217917       -1.13333874507733       -0.35720785948333
O           -4.08539655483757        0.62029625888118        0.61759487893529
H            4.36001344225174        0.70614161654252       -0.04158530494367
H            3.94100598379278       -0.56014532574091       -1.19167831202689
H            3.80945042585402       -0.87780445019124        0.54540981691743
H            1.56341595141651       -1.48746931171195       -0.10440186357172
H            0.25192526309994        1.62376164938805        1.11300967162844
H           -2.14578462650991        2.08844334214510        1.40701523067863
H           -3.10102324182695       -1.56944092521734       -0.56438481771731
H           -0.71525421933978       -2.04663548441975       -0.85051578427975
H           -4.65492659135835       -0.06153657090095        0.23896827139286
20
 energy: -32.780446871802 gnorm: 0.010440198001 xtb: 6.6.0 (conda-forge)
C            3.68005625379038       -0.14007644884033       -0.24099637901298
C            2.27612484638961        0.44311515862033       -0.23795558132255
O            2.05328867767447        1.62492514363830       -0.39109681299559
N            1.30824726897890       -0.49589434202039       -0.03714388338629
C           -0.06220464288504       -0.22190930111075        0.10831561783273
C           -0.48434629227529        0.94114003501557        0.74650183497928
C           -1.82725917079234        1.19914004963577        0.90589212703028
C           -2.77846926265976        0.29871428363052        0.43246461833166
C           -2.35806457257770       -0.86835049150480       -0.19317422614703
C           -1.00895617410537       -1.12740624276956       -0.35261622973426
O           -4.09030508548680        0.60151034537011        0.61190251862410
H            4.38592415189009        0.66839413064287       -0.05936996802422
H            3.89761221749777       -0.58063733604010       -1.21325643928499
H            3.78663510657225       -0.90197656128042        0.52735595976938
H            1.56307610061754       -1.47044785603789       -0.10464368385318
H            0.24616240263386        1.64518961868951        1.10758435852287
H           -2.16270231699557        2.09607582447126        1.40052874645186
H           -3.08908543667431       -1.57692136539030       -0.56122989685267
H           -0.69646087324957       -2.03977448425563       -0.84184525678780
H           -4.63927319834310       -0.09461016046408        0.22478257585937
20
 energy: -32.780802009669 gnorm: 0.008182874844 xtb: 6.6.0 (conda-forge)
C            3.67987393169229       -0.15434635760178       -0.25315667282109
C            2.28687143045002        0.45431336206113       -0.21552641863551
O            2.07980729647415        1.64081957165125       -0.34536218298866
N            1.30815101683554       -0.47786937774641       -0.02929033210597
C           -0.06333342666917       -0.20594122539842        0.11439629653893
C           -0.49241816116829        0.95847401937186        0.74783168855708
C           -1.83813305496770        1.20649618995568        0.90406142578280
C           -2.78097325686452        0.29583481341643        0.43151507538969
C           -2.35278239606748       -0.87026323081630       -0.19080277677784
C           -1.00103137195684       -1.12127690529935       -0.34587463644439
O           -4.10001078221875        0.58254149534669        0.60456845482952
H            4.41259687922600        0.63284902437275       -0.08507344429138
H            3.86157142862708       -0.60066918945297       -1.23137408229117
H            3.78013437727384       -0.92016167998885        0.51266609339309
H            1.56110226528138       -1.45339365803195       -0.11136740959767
H            0.23521459367405        1.66592809064028        1.10655292425479
H           -2.18421174837284        2.10171206214262        1.39500217029488
H           -3.07833584606035       -1.58412669686996       -0.55945008640640
H           -0.67775181689067       -2.03188508462270       -0.83136761579414
H           -4.63634135829773       -0.11883522313005        0.21405152911342
20
 energy: -32.781166163763 gnorm: 0.008005851026 xtb: 6.6.0 (conda-forge)
C            3.67994865193876       -0.17268316545141       -0.26697031084222
C            2.30177882426084        0.46416611358766       -0.18941005220874
O            2.11379565225134        1.65723978380250       -0.27964161598719
N            1.30837079154948       -0.45781161942884       -0.02177724305106
C           -0.06364095257420       -0.18693841679742        0.12143635976544
C           -0.50344229081132        0.97759889130942        0.74823183688748
C           -1.85266921149284        1.21370522608443        0.90043818299875
C           -2.78514688590814        0.29206579585568        0.42962764253937
C           -2.34643157808118       -0.87290010524897       -0.18718732036349
C           -0.99197308237028       -1.11324016196979       -0.33693994961031
O           -4.11119371544336        0.56268598279617        0.59542602274052
H            4.43665954612296        0.59407600472694       -0.12048225963395
H            3.82283855063625       -0.62298979985937       -1.25005911852861
H            3.78436386653732       -0.94046861758948        0.49574371472068
H            1.55533295075015       -1.43341085652743       -0.12722291607531
H            0.21922062166494        1.69185479919249        1.10324606139055
H           -2.20989028349639        2.10762780598800        1.38599884171534
H           -3.06526721311575       -1.59375609509709       -0.55506144720560
H           -0.65708410599773       -2.02275953055535       -0.81610960683849
H           -4.63557013642085       -0.14386203481817        0.20271317758679
20
 energy: -32.781549488606 gnorm: 0.009784765926 xtb: 6.6.0 (conda-forge)
C            3.67891007057902       -0.19462670176227       -0.28287210786340
C            2.32041448130964        0.47380113432381       -0.15304169992517
O            2.15738098571844        1.67437107568291       -0.18369881160738
N            1.30886237258801       -0.43499912335246       -0.01431910789826
C           -0.06255838776077       -0.16429837502017        0.12891383475489
C           -0.51703075670639        1.00030744301993        0.74449220714794
C           -1.87029063552551        1.22191544042248        0.89185483907989
C           -2.79064937198700        0.28718503343528        0.42584394742978
C           -2.33803638184707       -0.87714729165316       -0.18201580254225
C           -0.98111038002732       -1.10347123493926       -0.32523925563673
O           -4.12217427720681        0.54171297547924        0.58511484075640
H            4.46047292512388        0.55092933239137       -0.16597613355379
H            3.77324239386637       -0.64741060738283       -1.27114958456288
H            3.79607733339273       -0.96611360480901        0.47403847746538
H            1.54461398146278       -1.40950629680131       -0.15474345663861
H            0.19741855090538        1.72564687206246        1.09450060600708
H           -2.23886109445525        2.11499378227396        1.37030104586494
H           -3.04827460863426       -1.60783492365405       -0.54690935589430
H           -0.63403845679671       -2.01231665150289       -0.79643121285447
H           -4.63436874399915       -0.17293827821406        0.19333673047090
20
 energy: -32.781888532884 gnorm: 0.010566597205 xtb: 6.6.0 (conda-forge)
C            3.67653769567824       -0.21668310753106       -0.29833680627323
C            2.34112398641640        0.48082814984583       -0.10641253438439
O            2.20726748969315        1.68521296799446       -0.06450264611244
N            1.30974915211137       -0.41242381917050       -0.00844109493285
C           -0.05994993998590       -0.14040066287733        0.13482848828954
C           -0.53100193897632        1.02493548034346        0.73488664057556
C           -1.88832198128623        1.23092882213364        0.87725543245763
C           -2.79685992329099        0.28164980450364        0.42032230375903
C           -2.32847938874522       -0.88247510198134       -0.17636974907108
C           -0.96961070514248       -1.09273798749144       -0.31310027126829
O           -4.13124040520935        0.52142057138190        0.57626012208769
H            4.48044625696576        0.50838590195564       -0.21466913454016
H            3.71591354122038       -0.66747661235290       -1.29152380494038
H            3.81330001715378       -0.99541789551704        0.44862401177388
H            1.52994557168005       -1.38381252335908       -0.19289393902944
H            0.17231498322471        1.76485230230519        1.07872766679586
H           -2.26694935721573        2.12462405819434        1.34627906273848
H           -3.02887487669830       -1.62520687508313       -0.53592247241294
H           -0.61142220791760       -2.00168649829918       -0.77547680298307
H           -4.63388796967569       -0.20431697499517        0.19246552747056
20
 energy: -32.782119613425 gnorm: 0.005321573374 xtb: 6.6.0 (conda-forge)
C            3.67396089399663       -0.22519164721732       -0.30396337116129
C            2.35232395879278        0.47903240447197       -0.07599374426525
O            2.23525454892367        1.67910977549168        0.01451128122992
N            1.31054198858491       -0.40376181642702       -0.00954222373150
C           -0.05734226840139       -0.12965097245536        0.13490018693305
C           -0.53676383108672        1.03711659345783        0.72322074981445
C           -1.89565882511900        1.23577938079247        0.86347832319649
C           -2.80003351684930        0.27881962760516        0.41603849825985
C           -2.32362335976749       -0.88589191816793       -0.17317448097149
C           -0.96452999297069       -1.08770778171618       -0.30752785756926
O           -4.13283032218405        0.51412606805604        0.57440657973032
H            4.48259928779584        0.49273121523702       -0.23746104013980
H            3.68494300796310       -0.66869336586435       -1.29762099342557
H            3.82658767832943       -1.01087975846083        0.43342625530146
H            1.52009459034470       -1.37011293529707       -0.22213308211774
H            0.15891720329538        1.78634313234398        1.06300335831524
H           -2.27691805640594        2.13180331661993        1.32528217757636
H           -3.01867688583275       -1.63565862442723       -0.52794516593901
H           -0.60308794688713       -1.99762820818595       -0.76528332643926
H           -4.63575815252194       -0.21948448585693        0.20437787540297
20
 energy: -32.782166141163 gnorm: 0.022325527567 xtb: 6.6.0 (conda-forge)
C            3.66946437439994       -0.23566443736011       -0.31483632910148
C            2.36476755824592        0.48030344235411       -0.02781279033935
O            2.27222123277269        1.68182419556395        0.15920755353031
N            1.31065073180133       -0.39187043987048       -0.01660443248652
C           -0.05507062559024       -0.11877655040659        0.13366102825328
C           -0.54214430789245        1.05265908910189        0.70415355047006
C           -1.90243842582740        1.24395831578741        0.84040238983217
C           -2.80273099962519        0.27523508923179        0.40924190631117
C           -2.31817724910038       -0.89390950580385       -0.16513878934480
C           -0.95863430256054       -1.08664466824417       -0.29730048174834
O           -4.13384876718179        0.50686845371717        0.56801910983411
H            4.49076536141499        0.47082712504057       -0.26874878327465
H            3.63449811531215       -0.67098557312547       -1.31253493128179
H            3.83980694869584       -1.03123350654426        0.40890360878347
H            1.50953586807940       -1.35018646456496       -0.27326962587503
H            0.14538766927914        1.81419233657329        1.03349742687404
H           -2.28724832063752        2.14656644656073        1.28677551289672
H           -3.00700700450959       -1.65368739684178       -0.51065395332239
H           -0.59290920561606       -2.00071001293154       -0.74460631853236
H           -4.63688865146025       -0.23856593823780        0.21964434852134
20
 energy: -32.782417548494 gnorm: 0.005646646839 xtb: 6.6.0 (conda-forge)
C            3.66997502119089       -0.22592103561258       -0.30886098805894
C            2.35813255275430        0.47516819187478       -0.02820954232930
O            2.25701043856229        1.66738430653485        0.14934797536546
N            1.31054473243670       -0.40050216361062       -0.02075094893965
C           -0.05551855928308       -0.12871036894341        0.12980820001436
C           -0.53650676382930        1.04444908990451        0.70092289233895
C           -1.89505945275884        1.24199876192116        0.83830541212738
C           -2.80070751466220        0.27743692412180        0.40858567389600
C           -2.32175377510235       -0.89337684997901       -0.16649616596648
C           -0.96297774746092       -1.09214385717751       -0.30112785754758
O           -4.12901838830380        0.51682183931594        0.57119071906675
H            4.48366302508827        0.49000736669434       -0.25676806700057
H            3.64298482101465       -0.65982720131611       -1.30612059021585
H            3.84235176895822       -1.02041909130698        0.41439406920531
H            1.51401473588452       -1.35589624091360       -0.27467987906136
H            0.15403026515203        1.80242950271162        1.02968391756052
H           -2.27510452699313        2.14668564567202        1.28434803688492
H           -3.01374140741357       -1.65036466032744       -0.51097348822030
H           -0.60249709918841       -2.00759721544798       -0.75016854320734
H           -4.63982212604627       -0.22742294411585        0.22956917408769
20
 energy: -32.782552564521 gnorm: 0.005396066318 xtb: 6.6.0 (conda-forge)
C            3.67102623742549       -0.22230341903801       -0.30898738993420
C            2.35884629296364        0.47005482380151       -0.00700992767430
O            2.26158669906084        1.65532592376773        0.21135903445585
N            1.30954936741242       -0.40344546313828       -0.03127585603582
C           -0.05620368005667       -0.13289717925475        0.12421619976953
C           -0.53451421598496        1.04515259328273        0.68826834623073
C           -1.89243178353455        1.24523483552049        0.82629827497334
C           -2.80077498865172        0.27842049401571        0.40601924954141
C           -2.32420310075106       -0.89720901911903       -0.16141587111752
C           -0.96544054742904       -1.09842198088456       -0.29825296561377
O           -4.12764478407034        0.52273916668315        0.57060016964840
H            4.47905390670274        0.49872030730159       -0.25690894288915
H            3.63749136823988       -0.64766415002424       -1.30775643979565
H            3.85364471418597       -1.02049024366694        0.40776600050444
H            1.51298352108555       -1.35371565110746       -0.30772662201175
H            0.15705421393573        1.80450621448760        1.01051434778851
H           -2.27036742456403        2.15461571239155        1.26485642907845
H           -3.01722036896428       -1.65659010861940       -0.49869973663901
H           -0.60759892432617       -2.01774327918911       -0.74219838700108
H           -4.64483650267941       -0.22408957721040        0.24233408672154
20
 energy: -32.782693816752 gnorm: 0.012522671081 xtb: 6.6.0 (conda-forge)
C            3.67514785878793       -0.21656477466834       -0.31082120406232
C            2.36178876001268        0.45997327690655        0.03920507053873
O            2.27675286851575        1.62953654813086        0.35623730727543
N            1.30630845345991       -0.40447966062184       -0.05787645827527
C           -0.05908367834163       -0.13871131696348        0.11026144281692
C           -0.53312623755607        1.04960072174244        0.66001921688506
C           -1.88984681386632        1.25269558335728        0.80225175955768
C           -2.80180090015015        0.27954643316805        0.40229410461781
C           -2.32984163973357       -0.90641774839522       -0.14730578567662
C           -0.97059469702933       -1.11209236780606       -0.28944247883192
O           -4.12775879402334        0.53255549946663        0.56783385686055
H            4.47759713934846        0.51318329303126       -0.25993954668282
H            3.62270041132962       -0.62620996764323       -1.31631640109398
H            3.87877949836622       -1.02339268067591        0.39114243510168
H            1.51110346024203       -1.34155420426020       -0.37973740219500
H            0.16244689478200        1.81120656244138        0.96680095232760
H           -2.26568086056793        2.17028745260801        1.22579507512954
H           -3.02541125011753       -1.67156120746283       -0.46742067732611
H           -0.61677293689958       -2.03949901037097       -0.72056936143915
H           -4.65270753655916       -0.21790243198450        0.25958809447217
20
 energy: -32.782782994403 gnorm: 0.003231876618 xtb: 6.6.0 (conda-forge)
C            3.67843923579313       -0.21211151442855       -0.30708397424824
C            2.35728349954597        0.45612743525725        0.02683728228082
O            2.26752021135777        1.62208320665833        0.33587267342782
N            1.30460174526588       -0.40756183220870       -0.06550481098218
C           -0.06151701595197       -0.14322369830941        0.10567761992258
C           -0.53145700753774        1.04546229674139        0.66009716135025
C           -1.88718041814890        1.25182285543383        0.80656443663342
C           -2.80106865812478        0.28108043415536        0.40573583229439
C           -2.33383750552563       -0.90590095688082       -0.14460679632734
C           -0.97466966876443       -1.11579734527198       -0.29053777267668
O           -4.12846972196279        0.53661057014455        0.57018521604999
H            4.47286024205823        0.52487789542565       -0.24294820957600
H            3.64642099432746       -0.61996947779119       -1.31272378494442
H            3.87774887855203       -1.01775826662675        0.39617772828880
H            1.51412301314599       -1.34452079182466       -0.38066133649100
H            0.16951507499967        1.80262852655892        0.96580313041494
H           -2.26169038642714        2.16830490707386        1.23288886984888
H           -3.03300483483258       -1.66876219358989       -0.46259858140317
H           -0.62322480137062       -2.04397216585137       -0.72108019252450
H           -4.65239287639956       -0.20921988466593        0.25390550866161
20
 energy: -32.782833277845 gnorm: 0.002693630722 xtb: 6.6.0 (conda-forge)
C            3.67943871025743       -0.21356260050351       -0.30655832029970
C            2.35951390252748        0.45415030955695        0.03909285638573
O            2.27657761836703        1.61301948672371        0.37410655543586
N            1.30278917392668       -0.40313145300289       -0.07668340486705
C           -0.06286732351337       -0.14054444123834        0.10077308041705
C           -0.53359547190973        1.04938164706810        0.65238961670586
C           -1.88893103039992        1.25509901222740        0.80110361141891
C           -2.80176864058941        0.28142908966531        0.40583252537773
C           -2.33444975495087       -0.90801349721039       -0.13840337432172
C           -0.97548498252928       -1.11659488719216       -0.28740326333152
O           -4.13018158875642        0.53512406968536        0.57001247133587
H            4.47455074675978        0.52366660639542       -0.24120722120935
H            3.64403606354424       -0.61743942680927       -1.31569919280830
H            3.88391654449563       -1.02225671631934        0.39198136458827
H            1.51072925325750       -1.33673772362878       -0.40662477515872
H            0.16841437414685        1.80832142509502        0.95240234563634
H           -2.26413512065085        2.17243169516424        1.22476421248575
H           -3.03383760847109       -1.67368299560742       -0.44938691871145
H           -0.62396603617067       -2.04675546866241       -0.71297970416640
H           -4.65074882934100       -0.21370413140711        0.25448753508681
20
 energy: -32.782868627482 gnorm: 0.008777261348 xtb: 6.6.0 (conda-forge)
C            3.67958960661821       -0.21763089853291       -0.30530211671895
C            2.36416265034619        0.44820837057022        0.05864190857861
O            2.29576417674710        1.59244135312808        0.45650752353778
N            1.29897782563109       -0.39183777427430       -0.10482602105652
C           -0.06489338648413       -0.13267070426976        0.08810305619677
C           -0.53757934263705        1.05994221594993        0.63241947093171
C           -1.89229145750490        1.26207150966221        0.78874406632915
C           -2.80303824621766        0.28106900439738        0.40749936439880
C           -2.33460495008985       -0.91277782833323       -0.12480798884331
C           -0.97650869160006       -1.11689999382662       -0.28139397631219
O           -4.13278907905306        0.52953896813571        0.57289145316732
H            4.47551962101255        0.51829229226803       -0.23206779424760
H            3.64472857182944       -0.61123112500036       -1.31908463963154
H            3.88840131921292       -1.03476601099937        0.38229286822688
H            1.50212972169130       -1.31687635038101       -0.45807714816413
H            0.16494122849046        1.82254787924892        0.92244286062744
H           -2.26855656056181        2.18143346846568        1.20689397669486
H           -3.03368137161341       -1.68456075610700       -0.42091302533089
H           -0.62449428348148       -2.05060582391524       -0.69762855048376
H           -4.64577735233587       -0.22548779618649        0.25966471209955
20
 energy: -32.782908757846 gnorm: 0.002469198367 xtb: 6.6.0 (conda-forge)
C            3.67805233500628       -0.22181653147726       -0.30458894841768
C            2.36548805876241        0.45095566916637        0.05476059287290
O            2.29645481637551        1.59512615509068        0.43906036821048
N            1.29944985519153       -0.38693630778481       -0.10215009784701
C           -0.06394696500943       -0.12737129271687        0.08993847126460
C           -0.53947316147750        1.06315535771397        0.63489455779338
C           -1.89489142682201        1.26206862268782        0.79153368256828
C           -2.80329986628962        0.28006374119814        0.40860394573476
C           -2.33168982606866       -0.91153569153043       -0.12612093763616
C           -0.97378438226241       -1.11198871681332       -0.28240071002779
O           -4.13348478918617        0.52339839781595        0.57479615847643
H            4.47952207750755        0.50857965705359       -0.23176180896736
H            3.64296254115155       -0.61771950307066       -1.31914771217039
H            3.88194126496460       -1.03915013558206        0.38447684144546
H            1.49956381596935       -1.31394469888423       -0.45254482832106
H            0.16044473467983        1.82755238710741        0.92687072428972
H           -2.27245991436512        2.17996658497834        1.21182297300678
H           -3.02886063868985       -1.68397605320553       -0.42360912937035
H           -0.61933431799891       -2.04377367549478       -0.70050076604260
H           -4.64265421143894       -0.23245396625243        0.25806662313760
20
 energy: -32.782927309881 gnorm: 0.001769152964 xtb: 6.6.0 (conda-forge)
C            3.67828447138581       -0.22251863433988       -0.30252095651651
C            2.36663768553101        0.44909634419686        0.05869356873044
O            2.29807495570628        1.58914402097944        0.45516139171556
N            1.29893398193375       -0.38445610257098       -0.10967730497666
C           -0.06400577493166       -0.12544227324760        0.08580749912323
C           -0.53948396437606        1.06597420530036        0.62861446192801