53
 energy: -68.423777888962 gnorm: 0.097744964445 xtb: 6.6.0 (conda-forge)
C            6.76810000000000        0.32770000000000        1.78660000000000
C            5.27640000000000        0.63020000000000        1.92730000000000
C            4.51500000000000        0.50320000000000        0.59880000000000
C            4.35110000000000       -0.95920000000000        0.15070000000000
C            3.57350000000000       -1.08120000000000       -1.16850000000000
C            2.12510000000000       -0.69060000000000       -1.01430000000000
C            1.68530000000000        0.57830000000000       -1.41080000000000
C            0.35360000000000        0.96880000000000       -1.22890000000000
C           -0.59350000000000        0.02560000000000       -0.73700000000000
C           -2.11180000000000        0.14510000000000       -0.79010000000000
C           -2.68140000000000        1.45380000000000       -1.30200000000000
C           -3.74770000000000        2.06750000000000       -0.74740000000000
C           -4.38600000000000        1.54880000000000        0.52140000000000
C           -4.17500000000000        0.04240000000000        0.68330000000000
C           -2.67120000000000       -0.28320000000000        0.58570000000000
C           -2.30870000000000       -1.78710000000000        0.87480000000000
O           -0.97190000000000       -2.08890000000000        0.43690000000000
C           -0.11720000000000       -1.20580000000000       -0.24140000000000
C            1.22290000000000       -1.56430000000000       -0.39870000000000
C           -2.35730000000000       -2.05650000000000        2.38950000000000
C           -3.25750000000000       -2.77850000000000        0.17000000000000
C           -4.27210000000000        3.33190000000000       -1.37140000000000
O            0.04990000000000        2.30510000000000       -1.48660000000000
H            7.28150000000000        0.55390000000000        2.74480000000000
H            6.93310000000000       -0.74410000000000        1.55280000000000
H            7.21890000000000        0.95520000000000        0.98860000000000
H            4.82930000000000       -0.04260000000000        2.69110000000000
H            5.16780000000000        1.67360000000000        2.29490000000000
H            5.03450000000000        1.08790000000000       -0.19170000000000
H            3.50940000000000        0.95230000000000        0.74480000000000
H            3.83680000000000       -1.54360000000000        0.94480000000000
H            5.35290000000000       -1.41080000000000       -0.00720000000000
H            4.06530000000000       -0.46490000000000       -1.95310000000000
H            3.62470000000000       -2.13620000000000       -1.51570000000000
H            2.39370000000000        1.29090000000000       -1.81630000000000
H           -2.44970000000000       -0.59650000000000       -1.54440000000000
H           -2.30770000000000        1.82590000000000       -2.25250000000000
H           -3.94600000000000        2.08490000000000        1.39000000000000
H           -5.47810000000000        1.75460000000000        0.50840000000000
H           -4.74190000000000       -0.48480000000000       -0.11490000000000
H           -4.58000000000000       -0.26940000000000        1.66850000000000
H           -2.15610000000000        0.34310000000000        1.35230000000000
H            1.56230000000000       -2.52570000000000       -0.03240000000000
H           -3.37900000000000       -1.90640000000000        2.79600000000000
H           -1.65680000000000       -1.38080000000000        2.92540000000000
H           -2.04920000000000       -3.10250000000000        2.60420000000000
H           -3.28820000000000       -2.59900000000000       -0.92350000000000
H           -2.90250000000000       -3.81970000000000        0.32740000000000
H           -4.28920000000000       -2.71070000000000        0.57550000000000
H           -3.46360000000000        4.09200000000000       -1.41860000000000
H           -5.11220000000000        3.75230000000000       -0.77940000000000
H           -4.63510000000000        3.12050000000000       -2.39930000000000
H           -0.64490000000000        2.81760000000000       -0.96080000000000
53
 energy: -68.440185794170 gnorm: 0.038533908083 xtb: 6.6.0 (conda-forge)
C            6.76646457124713        0.32700334310298        1.79201937266258
C            5.27882641872638        0.63436522519403        1.92114380006955
C            4.50697505004594        0.49469657062308        0.60610156497978
C            4.34811439558178       -0.95432131596667        0.14321233022673
C            3.55282881484918       -1.08371383330157       -1.16351654844583
C            2.10693819881511       -0.68838870531341       -1.00112558473911
C            1.67073322280352        0.57699993436409       -1.37772164717124
C            0.34424542189819        0.96312581022052       -1.20187562879559
C           -0.60346569501821        0.03318548244042       -0.73431654209405
C           -2.11608854431744        0.14574845496308       -0.78610222044853
C           -2.69112958391321        1.44357189774521       -1.28586989874038
C           -3.73343269326779        2.06630376849635       -0.73810948492772
C           -4.37966686474242        1.54879838956746        0.51794322199068
C           -4.16386548830280        0.04438522524053        0.67923219338462
C           -2.66908177372493       -0.27803349771755        0.58638456726647
C           -2.30070702764635       -1.76783255572757        0.85902122210059
O           -0.96339098846146       -2.08243936677676        0.41888100617426
C           -0.13010105396058       -1.18817883940150       -0.23437398535739
C            1.20687331961542       -1.55050132207420       -0.38289247327375
C           -2.34223325314206       -2.04708254464320        2.37137692357600
C           -3.24552561766888       -2.76179565848320        0.16264274015417
C           -4.27310505159411        3.32557858194076       -1.36058313188681
O            0.05729427587087        2.27657275757643       -1.50940706634486
H            7.28348055213778        0.54598272208770        2.73000501252676
H            6.93550594371244       -0.72451700194424        1.55210550872362
H            7.21465505977050        0.93827731503366        1.00505772341575
H            4.83323234933536       -0.02941286839816        2.67288722603017
H            5.16487230169821        1.66292355056087        2.28847509005736
H            5.02298569446295        1.06931842242933       -0.17386700723572
H            3.51069636445860        0.93784380516650        0.73294548572280
H            3.84184153454000       -1.52777295720913        0.92986953182077
H            5.33942766790866       -1.40004671965419       -0.00522185643342
H            4.03448219173546       -0.46433671606059       -1.93197153387371
H            3.60925760286332       -2.12647008811779       -1.50533055672097
H            2.36945185165643        1.28584177760218       -1.80043589739634
H           -2.43584631704841       -0.60715616709948       -1.53152697289400
H           -2.29392537064674        1.81371678510796       -2.22333587984480
H           -3.95650143029268        2.08069688066137        1.38198650537239
H           -5.45608617189090        1.76324868962230        0.50114298210404
H           -4.71683140434818       -0.47936848322192       -0.10939769785990
H           -4.56534036847542       -0.27683983706448        1.64747318412594
H           -2.15314114326141        0.32811436639353        1.34991143130902
H            1.54012658367286       -2.51423031500701       -0.02469673010516
H           -3.34969188651043       -1.90070631409672        2.76697118800231
H           -1.65740296758976       -1.38634323867494        2.90976504054439
H           -2.04468496254729       -3.07905847184441        2.57767343335883
H           -3.28459361250564       -2.59009311714909       -0.91522655329593
H           -2.88606225528511       -3.78280168724105        0.32373525977606
H           -4.25651998136621       -2.69533046370084        0.57008437505656
H           -3.49064069493954        4.08651953221150       -1.42787554904988
H           -5.10094273997856        3.74125668207431       -0.78192459542919
H           -4.63088357394982        3.13066906354992       -2.37564335909656
H           -0.64882087100975        2.72212705191364       -0.98809951907133
53
 energy: -68.444607374497 gnorm: 0.012291363564 xtb: 6.6.0 (conda-forge)
C            6.76081226040402        0.32456635839273        1.78704692310625
C            5.27367610540332        0.63158659717178        1.91801677532956
C            4.50417199788536        0.49249794810793        0.60318167179660
C            4.34466017178609       -0.95683938094636        0.15182163830742
C            3.53917058604736       -1.08336626521534       -1.14959322255674
C            2.09913350800033       -0.68392495054675       -0.96920398047127
C            1.66416615819827        0.57532791008801       -1.34613742700044
C            0.33510208006059        0.95474272599291       -1.19799205063682
C           -0.60969985255956        0.03921817209301       -0.73473613809603
C           -2.11731043683791        0.14918136035293       -0.78514300958237
C           -2.69396782862385        1.43844967979361       -1.28107049141784
C           -3.72180752197365        2.06853993990860       -0.73131694595050
C           -4.37141046035909        1.54859472339429        0.51879282902123
C           -4.14991652067183        0.04394723153243        0.67628209163993
C           -2.65779517765025       -0.27001898333105        0.58864571576488
C           -2.29619439797701       -1.75076025210549        0.84802339252124
O           -0.96027107793225       -2.07635143210996        0.39918597192017
C           -0.14122388799003       -1.17571422529760       -0.22557184474083
C            1.19499309565505       -1.54083228003107       -0.35794946629020
C           -2.32462892260589       -2.03776754159033        2.35766076795024
C           -3.23616573728756       -2.74284208855862        0.15011805020877
C           -4.27502909991148        3.32496248601569       -1.34735197401802
O            0.05469029546975        2.25026383580098       -1.54305874651931
H            7.27111547090582        0.53982086962147        2.72065609684792
H            6.92681526686688       -0.71970889766590        1.54577512805006
H            7.20777478091175        0.93320829817386        1.00676630376692
H            4.83062061290143       -0.02706947471202        2.66686475986940
H            5.16092290353037        1.65608217389665        2.27619901460616
H            5.01689996131830        1.06250059749214       -0.17407397524512
H            3.51177359593539        0.92759191400132        0.72968265750287
H            3.84356434883430       -1.52640730299295        0.93581084202052
H            5.32847421201561       -1.39730737502615       -0.00884376573105
H            4.00091129780633       -0.45892300142953       -1.91598331576447
H            3.58645377272807       -2.12023362344788       -1.48561999891746
H            2.35362830382709        1.28929559647765       -1.77020041297981
H           -2.42770065890857       -0.61568291604001       -1.51894942918317
H           -2.28177965511635        1.80158987375411       -2.21322414094962
H           -3.95950690579318        2.07720111174523        1.38324129913590
H           -5.44100652123489        1.76002430351927        0.49312599965979
H           -4.68837550535565       -0.47406447598617       -0.11596480513044
H           -4.55135492231345       -0.28328198084340        1.63497240452879
H           -2.14097667972242        0.32803860742675        1.34770108961186
H            1.51531053870036       -2.50759127441730       -0.00175285027642
H           -3.32660641642587       -1.88979525570944        2.74461183015099
H           -1.64024507561784       -1.38224059545900        2.88643164499923
H           -2.02794000516392       -3.06511388549483        2.54292544059884
H           -3.27686015762968       -2.56625399202535       -0.91958236826233
H           -2.86055068599512       -3.74921864118018        0.31162052759568
H           -4.23459191811972       -2.67639869806365        0.56469523742507
H           -3.50398158329913        4.08695132573967       -1.42591134211547
H           -5.09554245463258        3.72494996559898       -0.76254557907444
H           -4.63521443221318        3.12587891560384       -2.35359932223350
H           -0.67758682526992        2.62279626853047       -1.02687950079267
53
 energy: -68.445692287701 gnorm: 0.009544127346 xtb: 6.6.0 (conda-forge)
C            6.75740629851156        0.32225840561157        1.78543779243613
C            5.27069736358762        0.63528258804768        1.91902208842798
C            4.49989905320265        0.48934057463228        0.60569480780191
C            4.34724069261480       -0.96174821865142        0.15883469346860
C            3.53390375295923       -1.08852747112817       -1.13712670727799
C            2.09971450263043       -0.68257721049459       -0.94719763274106
C            1.66802293140929        0.57601947487671       -1.32652530000427
C            0.33519630153366        0.95179333422220       -1.19985784341116
C           -0.60973800628426        0.03985028412816       -0.73854852771496
C           -2.11624035884650        0.15038693469826       -0.78992959765152
C           -2.69442714482283        1.43796833478600       -1.28513888521908
C           -3.71576227734692        2.07242287844664       -0.72576376693538
C           -4.36512558364070        1.55004612633705        0.52380210216789
C           -4.14110980658605        0.04536969755486        0.67629932652925
C           -2.64891270432179       -0.26437972661540        0.58715276583681
C           -2.29324514125048       -1.74263321822687        0.84187765573593
O           -0.96047592453996       -2.07649728903295        0.38567112549047
C           -0.14385714231738       -1.17240517793715       -0.22011823334894
C            1.19271095516310       -1.53701296340899       -0.33892606714001
C           -2.30895964486162       -2.03387817247885        2.34960841050028
C           -3.23364633018299       -2.72919991637228        0.13981378074787
C           -4.27812527831972        3.32825921183753       -1.33432383150694
O            0.04425826374198        2.23729286405472       -1.57351693645258
H            7.26983445588739        0.53253764154695        2.71990363722339
H            6.91779878582866       -0.72252683927226        1.53871764354218
H            7.20336004447079        0.93286075980378        1.00528151145296
H            4.82729441984493       -0.02307181693506        2.66752466956777
H            5.15974278144909        1.66127620845717        2.27375721779085
H            5.01292954239053        1.05517666687310       -0.17383995551804
H            3.50559592133442        0.92177228674220        0.72923748133248
H            3.84808813222223       -1.52853701378833        0.94558983735373
H            5.33066582625883       -1.40075828275801       -0.00713287301346
H            3.98730703920389       -0.46136812122623       -1.90505280799446
H            3.57116371027605       -2.12543526995159       -1.47266392440307
H            2.35362588201410        1.29478151396105       -1.74701844655653
H           -2.42859817592961       -0.61925986330574       -1.51707978184215
H           -2.28741105973269        1.79324083410664       -2.22201319727247
H           -3.95741563491644        2.07739999199351        1.39097518470551
H           -5.43536106340490        1.75719488001715        0.49210142981094
H           -4.67119487252090       -0.46896725547666       -0.12415382391678
H           -4.54473046027179       -0.28873056178792        1.63164607329950
H           -2.12898929739088        0.33398960932001        1.34373260658406
H            1.50285238097825       -2.50450459658187        0.02310112207179
H           -3.30784561003787       -1.88353484496397        2.74334218945086
H           -1.61665560043547       -1.37954280339512        2.87043988190363
H           -2.00990424800447       -3.06240691807289        2.52368129739107
H           -3.27695043376522       -2.54100636560111       -0.92846056233861
H           -2.84648664032709       -3.73269449663994        0.29087142128650
H           -4.23021634124281       -2.66952561040199        0.56004781429514
H           -3.51143810562201        4.09448140158608       -1.42086801173490
H           -5.09421893554442        3.72029748630817       -0.73706798284567
H           -4.64921343933412        3.12526140714887       -2.33656493654454
H           -0.73345377571157        2.56426862740702       -1.08667593482106
53
 energy: -68.446297141320 gnorm: 0.010574094534 xtb: 6.6.0 (conda-forge)
C            6.75419436946327        0.32068621364070        1.78545455413293
C            5.26860597270682        0.63912371167788        1.92332788560394
C            4.49874765836060        0.48652437287713        0.61053790746630
C            4.35103670654288       -0.96724960390771        0.17061548090516
C            3.53227639883752       -1.09364906858351       -1.12059184662993
C            2.10276888845790       -0.68005523349004       -0.92736328079268
C            1.67334907035499        0.57658350732591       -1.31537654274686
C            0.33705055568772        0.94891568178925       -1.20892313227642
C           -0.60969142244142        0.04002858181242       -0.74649938458698
C           -2.11668868646685        0.15126272566904       -0.79902835112736
C           -2.70230730782736        1.43684196476576       -1.29515436244767
C           -3.71485868302942        2.07563014087076       -0.72072045048577
C           -4.35786271896388        1.55216422949875        0.53202164865912
C           -4.13302245637536        0.04783171672364        0.67731959737904
C           -2.64099578857365       -0.26050849406321        0.58251868219943
C           -2.29134042574147       -1.73822398775277        0.83547158093668
O           -0.96333511667772       -2.07895979586624        0.36828384815208
C           -0.14535957901080       -1.16965702171183       -0.21774047219299
C            1.19267256813705       -1.53181171249172       -0.32158829364847
C           -2.29114506894971       -2.03276252328518        2.34144362424748
C           -3.23523667049731       -2.71811588384418        0.13043341600444
C           -4.28402242018839        3.33352914354947       -1.31765217868446
O            0.03813019849975        2.22609317275908       -1.60703627713171
H            7.27063687246405        0.52390525613717        2.72064593275849
H            6.90777467375020       -0.72511087263568        1.53321097300136
H            7.20122523823267        0.93312536969484        1.00554139938327
H            4.82419789682429       -0.01531225449680        2.67600336741686
H            5.16093546722000        1.66816012167369        2.27273864309035
H            5.00908307750312        1.05114351541185       -0.17293906775854
H            3.50146903871403        0.91492759717225        0.73239919538016
H            3.85681732004415       -1.53481854601845        0.96129904467317
H            5.33548548972411       -1.40377262923148        0.00003197678697
H            3.98416166860118       -0.47036746818661       -1.89285015200346
H            3.55976613944111       -2.13230110733106       -1.45410023634919
H            2.35780298804387        1.29957966515841       -1.73017788291693
H           -2.43262594288175       -0.62166818211118       -1.52078675964799
H           -2.31468416508840        1.78126050025856       -2.24432962382855
H           -3.95059337727733        2.07866212503120        1.40047995367492
H           -5.42940369521742        1.75694675264475        0.49930872425314
H           -4.66041786222112       -0.46165475829414       -0.12920209396546
H           -4.53689023390857       -0.29421404821579        1.63034467781373
H           -2.11582990316745        0.34044165319761        1.33516359373143
H            1.49318256653132       -2.49926293107748        0.04893510708299
H           -3.28397024755148       -1.87981568569812        2.75174327095090
H           -1.58736640945323       -1.38030033044050        2.85250173951283
H           -1.98980607066622       -3.06265079662375        2.50804712454374
H           -3.28691828284259       -2.51263163792434       -0.93600933315170
H           -2.83938535420439       -3.72209821810284        0.26102391091727
H           -4.23034196591316       -2.67038714511449        0.55820328854822
H           -3.51937095386895        4.10181939363049       -1.41389211526833
H           -5.09099655151905        3.72299698442011       -0.70395610762304
H           -4.67309990092447        3.13195631786645       -2.31484902889943
H           -0.78420356269359        2.51731952124186       -1.16668317504272
53
 energy: -68.446685663590 gnorm: 0.007751593636 xtb: 6.6.0 (conda-forge)
C            6.75338349211973        0.32000850543897        1.78931328144149
C            5.26954640423843        0.64454575627415        1.92981656050642
C            4.49797242302013        0.48515422944061        0.61947364208167
C            4.35441751467423       -0.97004958617278        0.18277641946469
C            3.53300991551397       -1.09790263039426       -1.10531209571990
C            2.10544240989187       -0.67732520795405       -0.91613589675391
C            1.67573312322487        0.57582136933742       -1.31669324917719
C            0.33724680388495        0.94570865434566       -1.22367727131311
C           -0.61135077095426        0.03963439168872       -0.75756456232176
C           -2.11958981327867        0.14986960744798       -0.81021717689401
C           -2.71313895266678        1.43483582804179       -1.30469034909424
C           -3.71656030926931        2.07754274798914       -0.71585175426110
C           -4.34999049646495        1.55467503167898        0.54212045078093
C           -4.12816190781835        0.05021066963087        0.67981758987301
C           -2.63733230889319       -0.26031947564754        0.57544557934877
C           -2.29109913076842       -1.73843758162631        0.82799462174198
O           -0.96823694867056       -2.08303640079884        0.34873336629478
C           -0.14735228921787       -1.16795256295128       -0.22180239788225
C            1.19266052332526       -1.52653931316560       -0.31203574008549
C           -2.27498382777718       -2.03326448469720        2.33302530630392
C           -3.24132471742286       -2.71259592238591        0.12441611163339
C           -4.29033925678556        3.33822778636698       -1.30168348040578
O            0.03569318889973        2.21640973439318       -1.63933931305282
H            7.27351296470898        0.51729333934910        2.72442005554297
H            6.90109254487056       -0.72630272464632        1.53280638293734
H            7.20151481079130        0.93333766578485        1.00982252987139
H            4.82418558999899       -0.00435152338782        2.68765753763502
H            5.16530566988416        1.67648950494124        2.27379654522233
H            5.00542267986958        1.04900807808447       -0.16728953393110
H            3.49867911772118        0.91085067727524        0.74048454544694
H            3.86507140235835       -1.53875783957639        0.97669604759482
H            5.33995749827754       -1.40477872705431        0.00974258854307
H            3.98892267050354       -0.48194056784484       -1.88180971397628
H            3.55359452302723       -2.13897085175150       -1.43466941062106
H            2.36092388928460        1.29988365773946       -1.72893131033546
H           -2.43707132098045       -0.62400894285012       -1.53012102957021
H           -2.34739642867449        1.77130534716528       -2.26638839060111
H           -3.93790582362386        2.07941693971836        1.40962020448401
H           -5.42213345110464        1.76091327707341        0.51443672410136
H           -4.65936205630076       -0.45404883836901       -0.12825558441720
H           -4.52866726568713       -0.29772828902219        1.63244315847557
H           -2.10624109880575        0.34135190372918        1.32463150021316
H            1.48760942669385       -2.49242521795471        0.06756888058538
H           -3.26106323771385       -1.87714904465713        2.76029758143491
H           -1.56041364682416       -1.38304828339766        2.83458603725401
H           -1.97369232019862       -3.06448223946073        2.49569789885623
H           -3.30668412839069       -2.49145658061298       -0.93946930287684
H           -2.83964229165363       -3.71768557884730        0.23408670409814
H           -4.23283216617715       -2.67584311234580        0.56365452888761
H           -3.52465111509418        4.10481283052256       -1.40775751579548
H           -5.08555108830582        3.72994030829322       -0.67236609322324
H           -4.69869931674653        3.14146772882345       -2.29312804651630
H           -0.80983110051317        2.49178595699816       -1.24259316182979
53
 energy: -68.447040353116 gnorm: 0.008280191180 xtb: 6.6.0 (conda-forge)
C            6.75438289398327        0.32015063036080        1.79709874538274
C            5.27267231377781        0.65120571578554        1.93901373951140
C            4.49805267087064        0.48581534469074        0.63187412830299
C            4.35632960188969       -0.97036502686630        0.19793772387726
C            3.53566037465222       -1.10113812862656       -1.08932952689161
C            2.10781751488827       -0.67420674813327       -0.91111874960996
C            1.67678751333690        0.57458975562247       -1.32589888876614
C            0.33666016589372        0.94209407861610       -1.24450792494050
C           -0.61458320808205        0.03811092951305       -0.77587658822637
C           -2.12465441742739        0.14688755192049       -0.82536188006271
C           -2.72640838798798        1.43223111569677       -1.31394643968380
C           -3.71891940851446        2.07900849149161       -0.71038772375492
C           -4.33915147213192        1.55796436073084        0.55489463469018
C           -4.12412937614377        0.05259612555329        0.68350811419672
C           -2.63553805185763       -0.26288690995571        0.56444708388820
C           -2.29169859066969       -1.74202926597156        0.81688713814887
O           -0.97549279736209       -2.08898363919288        0.32207361293632
C           -0.15064011535918       -1.16739054920984       -0.23493559957289
C            1.19171002020372       -1.52131776352116       -0.30987984641204
C           -2.25778669918469       -2.03447476899464        2.32168084937187
C           -3.25251686050739       -2.71190796719407        0.12220375771217
C           -4.29563076832459        3.34358426880904       -1.28429220153632
O            0.03671939524715        2.20803088745583       -1.66787177305300
H            7.27679989326210        0.51277542890029        2.73166499675477
H            6.89672791730835       -0.72626965997042        1.53867743576800
H            7.20503097818734        0.93252395510148        1.01828178697412
H            4.82630698630285        0.01065666686689        2.70388267914270
H            5.17313172640113        1.68633515530843        2.27558743840766
H            5.00146931637020        1.04949461768881       -0.15805931514546
H            3.49777937775654        0.90910396930672        0.75399415935231
H            3.87136655356859       -1.54039225978852        0.99408330248117
H            5.34278503957153       -1.40333996996364        0.02376722750269
H            3.99930461975335       -0.49510159846226       -1.86995765123941
H            3.55146874916527       -2.14499764270331       -1.41186666981171
H            2.36387439991909        1.29609393297803       -1.74007325417505
H           -2.44281548891245       -0.62628703205707       -1.54548335158999
H           -2.38233936384541        1.76529775964635       -2.28573748425681
H           -3.91532914391000        2.07851534324957        1.41921233722298
H           -5.41081225368587        1.77044463286859        0.53950653261765
H           -4.66606819693806       -0.44542148352305       -0.12157394400915
H           -4.51693774183688       -0.29924377585158        1.63782044320390
H           -2.09671874621663        0.33786121090100        1.30928381990389
H            1.48410901172024       -2.48436463708588        0.07923267464568
H           -3.23579979592982       -1.87285546343026        2.76585578701752
H           -1.53212595073631       -1.38739755989592        2.81226304409538
H           -1.95970986928056       -3.06706611813179        2.48315707180963
H           -3.33974960670063       -2.47757417116122       -0.93769695408812
H           -2.84678149584434       -3.71760680780462        0.21049485804076
H           -4.23635986498025       -2.68444846721222        0.57991342014480
H           -3.52649334634484        4.10496142805610       -1.40302276062238
H           -5.07524373499111        3.74115341983854       -0.63863763416234
H           -4.72621700818180        3.15358405660442       -2.26777998790393
H           -0.84069527214192        2.46609658114568       -1.32740239359011
53
 energy: -68.447337357684 gnorm: 0.005772798314 xtb: 6.6.0 (conda-forge)
C            6.75672654482949        0.32135646754619        1.80900544401758
C            5.27706651097102        0.65977438525425        1.95102059600426
C            4.49697278646833        0.49022528937112        0.64780143265201
C            4.35458956001786       -0.96619855957507        0.21508619288159
C            3.53831801074647       -1.10166349285543       -1.07446986923273