24
 energy: -42.171135678021 gnorm: 0.000878541532 xtb: 6.6.0 (conda-forge)
C            3.28429617061034        0.61291281664103       -0.20595818416507
N            2.15489021837682       -0.27436033833896       -0.21579760146927
C            2.15717747816742       -1.60552170322454       -0.37073547217414
N            0.95392776709642       -2.14856746877056       -0.33262645782559
C            0.11963937607189       -1.10530555351367       -0.14118821108231
C            0.83632208978382        0.08508811113408       -0.06178023920723
C            0.19884120038902        1.34242609425888        0.14325444698352
O            0.74183821772861        2.43903708446795        0.22815016342714
N           -1.18551208568747        1.20824928265615        0.25154695674904
C           -1.91981502422422        0.03445511368252        0.16449982560257
O           -3.13851653753887        0.04578411960693        0.26628355475520
N           -1.23473662724120       -1.13527598242401       -0.02604726810945
C           -1.95916392972137       -2.38791993315103       -0.12782085090757
C           -1.95031833051807        2.42899672851605        0.46460406344938
H            4.19292449209861        0.03203136669124       -0.33701795082824
H            3.18836958815380        1.34422946589211       -1.00852545969373
H            3.31925832025655        1.15541195092223        0.73868661256310
H            3.05077418255968       -2.17863979160906       -0.51287530133859
H           -1.27186038535311       -3.18921614379538        0.12536299447101
H           -2.80429624341490       -2.35904726323240        0.55686892840633
H           -2.33083411508933       -2.52499658316112       -1.14295084817877
H           -2.81593920022896        2.19736661801983        1.08022439278635
H           -2.28671132036542        2.83234948428059       -0.49045616293083
H           -1.30045530191009        3.15061252445115        0.95419806871717
