15
 energy: -19.051549809623 gnorm: 0.000251473402 xtb: 6.6.0 (conda-forge)
C            2.15491654730383       -0.43015747916974       -0.27439230308819
C            0.69426386787762       -0.14330252517317       -0.10083398278921
C            0.17183605064816        1.10266400335266       -0.42625078898684
C           -1.17284117357946        1.37598487618044       -0.24774517375913
C           -2.01806157882597        0.40431788060910        0.26082213465591
C           -1.50888843104606       -0.84086904464690        0.58859757180187
C           -0.16365993401951       -1.11054501073418        0.40875045774471
H            2.32073028069793       -1.48604888911400       -0.47244851651760
H            2.69329467262580       -0.16841254090093        0.63648946370544
H            2.56951385793749        0.15526540150551       -1.09109720051501
H            0.82534990952095        1.86552358479279       -0.82491391424117
H           -1.56282970262437        2.34941823442496       -0.50702200724056
H           -3.06781295379715        0.61586602016777        0.39989109895336
H           -2.16222247150710       -1.60454825023355        0.98459205364349
H            0.22641105878785       -2.08515626106075        0.66556110663295
