3
 energy: -5.068980459049 gnorm: 0.047423486625 xtb: 6.6.0 (conda-forge)
O            0.01690000000000        0.40380000000000        0.00000000000000
H            0.77390000000000       -0.23450000000000        0.00000000000000
H           -0.79080000000000       -0.16920000000000        0.00000000000000
3
 energy: -5.070364914597 gnorm: 0.015728098427 xtb: 6.6.0 (conda-forge)
O            0.01633115752229        0.39087512385786        0.00000000000000
H            0.76118823306085       -0.22750597296516        0.00000000000000
H           -0.77751939058314       -0.16326915089269        0.00000000000000
3
 energy: -5.070533444819 gnorm: 0.002117369578 xtb: 6.6.0 (conda-forge)
O            0.01592185378037        0.38144608237173        0.00000000000000
H            0.75967286145924       -0.22272533800012        0.00000000000000
H           -0.77559471523961       -0.15862074437161        0.00000000000000
3
 energy: -5.070543037432 gnorm: 0.000671007862 xtb: 6.6.0 (conda-forge)
O            0.01586619745509        0.38005858629415        0.00000000000000
H            0.76221226883655       -0.22213547016236        0.00000000000000
H           -0.77807846629163       -0.15782311613179        0.00000000000000
3
 energy: -5.070544094159 gnorm: 0.000338088044 xtb: 6.6.0 (conda-forge)
O            0.01580556184926        0.37857349864087        0.00000000000000
H            0.76430206332065       -0.22147828506899        0.00000000000000
H           -0.78010762516991       -0.15699521357188        0.00000000000000
