28
 energy: -49.360865150034 gnorm: 0.194623771447 xtb: 6.6.0 (conda-forge)
C           -2.71210000000000        2.17210000000000       -1.13900000000000
N           -2.09860000000000        0.98640000000000       -0.54560000000000
C           -0.78500000000000        0.69810000000000       -0.42210000000000
C           -0.64700000000000       -0.47860000000000        0.23620000000000
N            0.56130000000000       -1.00930000000000        0.52380000000000
C            1.68680000000000       -0.33250000000000        0.13510000000000
N            1.58370000000000        0.88300000000000       -0.51980000000000
C            0.34410000000000        1.40640000000000       -0.82230000000000
O            0.22810000000000        2.49680000000000       -1.44580000000000
C            2.80690000000000        1.57630000000000       -0.95060000000000
O            2.94920000000000       -0.87850000000000        0.40180000000000
C            3.12790000000000       -2.12210000000000        1.06930000000000
N           -1.85350000000000       -0.98420000000000        0.54570000000000
C           -2.72000000000000       -0.05330000000000        0.07210000000000
O           -3.97090000000000       -0.13830000000000        0.20530000000000
C           -2.15120000000000       -2.16970000000000        1.34240000000000
H           -2.37230000000000        2.28410000000000       -2.18980000000000
H           -3.81900000000000        2.08530000000000       -1.13590000000000
H           -2.42250000000000        3.07260000000000       -0.55780000000000
H            3.61710000000000        1.45300000000000       -0.20040000000000
H            2.64070000000000        2.66940000000000       -1.05710000000000
H            3.14460000000000        1.16410000000000       -1.92460000000000
H            4.21290000000000       -2.33440000000000        1.15990000000000
H            2.68440000000000       -2.07500000000000        2.08650000000000
H            2.64910000000000       -2.93820000000000        0.48780000000000
H           -3.12890000000000       -2.59910000000000        1.03780000000000
H           -1.36560000000000       -2.93990000000000        1.19030000000000
H           -2.19040000000000       -1.89450000000000        2.41690000000000
28
 energy: -49.389078909287 gnorm: 0.089085486190 xtb: 6.6.0 (conda-forge)
C           -2.70865544025763        2.15287706401426       -1.12959196526458
N           -2.10282739978582        0.97799552032797       -0.53736061143464
C           -0.76530991557878        0.70459192712368       -0.42142537136159
C           -0.60980230468048       -0.48734278803971        0.24647735056682
N            0.59966541010248       -1.02488961990696        0.52855202882597
C            1.66986606987638       -0.34689713792029        0.13939292570059
N            1.59906737768715        0.86176679217943       -0.51153007776119
C            0.36938192421321        1.43138198628453       -0.83771520480635
O            0.29532360864762        2.50667717240013       -1.44690302118416
C            2.80943514783555        1.55551137787124       -0.93942775548897
O            2.91740858753678       -0.84649904416542        0.38562438385055
C            3.08586898177601       -2.09114187109411        1.05443198793725
N           -1.84083937195772       -0.98197899780797        0.55090722223802
C           -2.74989438621462       -0.05786144325531        0.08116034486894
O           -3.97067577750707       -0.15197100076811        0.20282840231897
C           -2.14610487264640       -2.15740380191888        1.33606271017240
H           -2.36551660009508        2.26957018226791       -2.16329945310799
H           -3.79815785977251        2.04865201515799       -1.11468768444121
H           -2.42024868414833        3.04683834709082       -0.56510313501022
H            3.60172405446110        1.42615730359562       -0.19669713321975
H            2.60042324919762        2.62728143014943       -1.05315850698049
H            3.14272424862869        1.16235052637741       -1.90612967338729
H            4.16582273829516       -2.27566862755115        1.12983264610748
H            2.66341173159201       -2.06553027535679        2.06673648535714
H            2.62928422367355       -2.91512526936716        0.49181053843780
H           -3.11575338985062       -2.56409207906420        1.02949224158394
H           -1.36552489886880       -2.90825093822600        1.17973081613043
H           -2.19029645215947       -1.89699875039836        2.40008950935216
28
 energy: -49.398122413046 gnorm: 0.024199146715 xtb: 6.6.0 (conda-forge)
C           -2.69937941488892        2.13127418545559       -1.11778613821564
N           -2.09831959211579        0.96529662037359       -0.52609967599605
C           -0.74473080289461        0.70952290888778       -0.41757727403907
C           -0.57987544033094       -0.48806342884844        0.25529824750957
N            0.62435979503408       -1.03771279866309        0.53517421957370
C            1.65259840987685       -0.36285577997634        0.14454800988920
N            1.60707271296000        0.83768302745985       -0.50538406138595
C            0.38678200524189        1.45720443289869       -0.85224654358764
O            0.36087894627665        2.51855795064280       -1.45154848847784
C            2.81223382151657        1.52794416423187       -0.92632248966006
O            2.88981556128353       -0.81708615899531        0.36749519404363
C            3.04978793485085       -2.05946058084475        1.03813705539144
N           -1.82385548557351       -0.97257548104901        0.55423571711388
C           -2.77426422615145       -0.06273891499930        0.08894090964740
O           -3.97154771787057       -0.16970987308712        0.20299110023590
C           -2.13569817111520       -2.14344961350243        1.32919000774630
H           -2.35857387117192        2.24742439960298       -2.14515769379812
H           -3.77881496742759        2.00618544597289       -1.09258356941789
H           -2.41780878882889        3.02533716647571       -0.56156532767887
H            3.59355541335262        1.39964463573364       -0.18600754928309
H            2.56393797607306        2.58422221334315       -1.04149818552116
H            3.14872976426930        1.14614554748151       -1.88925445551206
H            4.12725537568518       -2.22176428686063        1.10196291019743
H            2.62517717195058       -2.03156444744410        2.04112779786673
H            2.59131776177646       -2.87560387727263        0.48054946628228
H           -3.10322034796830       -2.52853518052327        1.01342118304904
H           -1.36089507924332       -2.88739885158965        1.16880272677898
H           -2.18671874456664       -1.89792342490398        2.39125690724797
28
 energy: -49.399322239179 gnorm: 0.014081301624 xtb: 6.6.0 (conda-forge)
C           -2.69842802561838        2.12000296061422       -1.11152725716094
N           -2.09215756592423        0.96107643608772       -0.51695490957662
C           -0.73595122198180        0.71427258832181       -0.41222209973595
C           -0.57260343960572       -0.48223206019937        0.26247790429664
N            0.62563086561698       -1.04139707251366        0.54232037819720
C            1.65206649220906       -0.36182805051316        0.14071009860774
N            1.60610418470064        0.83386917324507       -0.51048757329956
C            0.38929276123003        1.46796694478760       -0.85795336565121
O            0.38337940034845        2.52921762059685       -1.45566224668670
C            2.81836132416000        1.51372604474876       -0.92097665099666
O            2.89212726040035       -0.80396752042774        0.35386305557250
C            3.03227613243573       -2.04359297914657        1.02889691027237
N           -1.81387970995763       -0.96509355731842        0.56038363371784
C           -2.77446205372551       -0.06351819246335        0.09523434309894
O           -3.97317350335930       -0.18371150297257        0.20126810301180
C           -2.12711767396657       -2.13990049534198        1.32657687394177
H           -2.35938440257563        2.23193834086271       -2.14083268734211
H           -3.77736819630239        1.98014661075756       -1.08074453705947
H           -2.42241861971406        3.01791858877158       -0.55693045886248
H            3.59169980642660        1.38388384747110       -0.17004687030441
H            2.56489932606879        2.56685147102396       -1.04059623968455
H            3.16502351081232        1.12431687369632       -1.87825324418960
H            4.10574946250957       -2.21138705937114        1.09592924850332
H            2.59305746238691       -1.99935047223463        2.02577493196545
H            2.55820438442303       -2.84888734220530        0.46737583729699
H           -3.09783101837861       -2.51234048343251        1.00155491442128
H           -1.35383410341381       -2.88552930423328        1.15931387924024
H           -2.17946283920484       -1.90245140861156        2.39160802840616
28
 energy: -49.399793964663 gnorm: 0.005450983814 xtb: 6.6.0 (conda-forge)
C           -2.70407202871406        2.11085803968103       -1.10664604217142
N           -2.08704497663336        0.95964280489480       -0.50850126896295
C           -0.72893402594452        0.72317048234071       -0.40731855471913
C           -0.56513551058942       -0.47220781728055        0.26842379197521
N            0.62793814313364       -1.03837479614674        0.54838372755646
C            1.65370327918132       -0.35490358620744        0.13535650749203
N            1.60248634666812        0.83605499683081       -0.51781438395250
C            0.38751088570691        1.48120456596919       -0.86211383484248
O            0.39606153010442        2.54171370311221       -1.45890386786512
C            2.82457076765535        1.50454753646776       -0.91770017650210
O            2.89420856808906       -0.79844051412454        0.34084583605552
C            3.01364178027500       -2.03566297954345        1.02286894750607
N           -1.80062095232348       -0.95677098551603        0.56779828612744
C           -2.76803440986361       -0.06476675052441        0.09952028704366
O           -3.96695544277595       -0.19763180464148        0.20177372673625
C           -2.11402919369321       -2.13882835279637        1.32331983735734
H           -2.36878450631408        2.22119118639885       -2.13810254643261
H           -3.78217925451653        1.95881786561581       -1.07259016866037
H           -2.43645115658895        3.01442573332212       -0.55572644087198
H            3.58608833801800        1.37824302098742       -0.15172461550723
H            2.57855379324125        2.55648516623981       -1.05389215499500
H            3.18802828016542        1.09784995271921       -1.86272356629930
H            4.08202978098075       -2.22042576469044        1.09867120816730
H            2.56035225101082       -1.97374293185269        2.01383890520066
H            2.52308720785240       -2.83149055614067        0.45999079076803
H           -3.08785167640162       -2.50131419102430        0.99413684513591
H           -1.34413750460665       -2.88727879354936        1.14742751325586
H           -2.16423031311705       -1.91236523054124        2.39150141140443
28
 energy: -49.399960153291 gnorm: 0.004206706697 xtb: 6.6.0 (conda-forge)
C           -2.71191145602395        2.10687225335575       -1.10513065530075
N           -2.08573212172678        0.96174899639793       -0.50349391191393
C           -0.72593739784927        0.73190588555706       -0.40417575759385
C           -0.56039490427366       -0.46336317806360        0.27150014365892
N            0.63067212348785       -1.03216746772103        0.55014417619764
C            1.65637991306841       -0.34899775093491        0.13167666270364
N            1.60150961718096        0.83981761651980       -0.52201149695938
C            0.38590081439326        1.49068554041431       -0.86294062215379
O            0.40056887662790        2.55084459871370       -1.45861179399922
C            2.82931041705021        1.50152044089923       -0.91736153516957
O            2.89483881108579       -0.80048497502692        0.33429292275350
C            2.99952534993774       -2.03646499953724        1.02194199247414
N           -1.79168718043773       -0.95080185548401        0.57373603861166
C           -2.76223213738552       -0.06469119583308        0.10232105084310
O           -3.96046182966206       -0.20491490119082        0.20412670589803
C           -2.10269814181381       -2.13967535936072        1.32012085192123
H           -2.37974197019847        2.21633708353883       -2.13789470940475
H           -3.78891750598963        1.94705250563699       -1.06913977280879
H           -2.45082540676114        3.01433860029295       -0.55734488912400
H            3.58032318262397        1.38658588975050       -0.13837195684820
H            2.58893801933588        2.55253241591841       -1.07482059293436
H            3.20688489468496        1.07657287726153       -1.84955102373810
H            4.06491206572603       -2.23513509780241        1.10456076706263
H            2.54063404750831       -1.96413702936045        2.00986620864964
H            2.50094022404350       -2.82813803936821        0.45982782862841
H           -3.07884946760029       -2.49665675783648        0.99216690330006
H           -1.33538629606173       -2.88880782399741        1.13420157782485
H           -2.14676254097073       -1.92237827273970        2.39046488742124
28
 energy: -49.400092439269 gnorm: 0.005060093290 xtb: 6.6.0 (conda-forge)
C           -2.72253730334727        2.10452842034720       -1.10479009525146
N           -2.08624364951015        0.96687917262188       -0.49806291734201
C           -0.72429578846351        0.74288196969578       -0.40014211917591
C           -0.55647726182478       -0.45295428602668        0.27472635260917
N            0.63332005567541       -1.02354765187979        0.55078502581472
C            1.65981809258004       -0.34335420442208        0.12859124197849
N            1.60299360778361        0.84432362173860       -0.52450330415883
C            0.38525077335719        1.50034764386206       -0.86115230681706
O            0.40428816255614        2.56062243374438       -1.45510410405784
C            2.83514991543979        1.49944725808996       -0.91847830283149
O            2.89511310968632       -0.80587085579411        0.32957689748650
C            2.98433687473076       -2.04067124210993        1.02288688024950
N           -1.78396598149804       -0.94394002464139        0.58104149860033
C           -2.75684707533806       -0.06316315226438        0.10590043959712
O           -3.95415848033049       -0.20999343318409        0.20736452539893
C           -2.08947711054942       -2.14180829926721        1.31547255093412
H           -2.39377039082546        2.21201855230074       -2.13880905243849
H           -3.79794033651733        1.93597408201453       -1.06660846970875
H           -2.46898475032176        3.01660506636149       -0.56150163652942
H            3.57315318677123        1.40806093477236       -0.12330188471875
H            2.59763138888138        2.54716821941840       -1.10896839800809
H            3.23051538166743        1.04870098324218       -1.83181768511496
H            4.04703946323375       -2.25340368557035        1.11199717214900
H            2.52232985800503       -1.95921141674886        2.00829211100416
H            2.47949826151661       -2.82928440050410        0.46237890653328
H           -3.06916795653259       -2.49269972188800        0.99274880515102
H           -1.32535226286071       -2.89023578452205        1.11289465719517
H           -2.12141978396514       -1.93742019938653        2.38868321145154
28
 energy: -49.400186856199 gnorm: 0.005224787421 xtb: 6.6.0 (conda-forge)
C           -2.73109607442095        2.10412889618402       -1.10525200348686
N           -2.08774602825578        0.97299036422338       -0.49324747188534
C           -0.72421683322481        0.75169479103312       -0.39600485609808
C           -0.55496555013133       -0.44502469954381        0.27771656521647
N            0.63412614377853       -1.01675654012025        0.55133603323850
C            1.66186304652622       -0.34038291389256        0.12776319767827
N            1.60609853625761        0.84729011699377       -0.52419211122083
C            0.38615701172559        1.50664766815962       -0.85725567380730
O            0.40705752946418        2.56748823691117       -1.44957245702872
C            2.83989812165635        1.49768900090424       -0.92024960881626
O            2.89472367300754       -0.81078185706219        0.32811401508813
C            2.97430229466119       -2.04477814639567        1.02441514753839
N           -1.78065849865444       -0.93825181883349        0.58718395217655
C           -2.75450162264687       -0.06044470636345        0.10941910379749
O           -3.95126105997366       -0.21079335302503        0.20969696690010
C           -2.07956353536493       -2.14433036204378        1.31046413669875
H           -2.40469923697215        2.20858676137400       -2.14019163970875
H           -3.80509097422916        1.92875729660179       -1.06518275817194
H           -2.48339497125872        3.02030702318446       -0.56672616567828
H            3.56674908925653        1.43530972395624       -0.11151881778167
H            2.60050049470441        2.53919654377933       -1.14498396362505
H            3.25149008373470        1.02156137539266       -1.81359458459981
H            4.03541632916673       -2.26572998068714        1.11672869638301
H            2.51174971243382       -1.95848613787113        2.00863949428170
H            2.46606869748121       -2.83181488432110        0.46526461666713
H           -3.06374870978027       -2.48927910530128        0.99599454251426
H           -1.31921833699139       -2.89150473222140        1.08887157447596
H           -2.09623933195017       -1.95328856101549        2.38646406925417
28
 energy: -49.400286632799 gnorm: 0.004994050629 xtb: 6.6.0 (conda-forge)
C           -2.73810403464567        2.10489008436810       -1.10603462149785
N           -2.08956860814715        0.98045177570880       -0.48755433020536
C           -0.72509733686329        0.75942793507816       -0.39081114970577
C           -0.55527188036257       -0.43840759136031        0.28136739903931
N            0.63312767182624       -1.01139972056910        0.55285002443736
C            1.66232667262713       -0.33907199938949        0.12913253026526
N            1.60999145879537        0.84923366845997       -0.52155989543901
C            0.38830004233427        1.51113518539698       -0.85106091776601
O            0.40944832586348        2.57291155585341       -1.44177770636676
C            2.84389568977310        1.49512524650851       -0.92248006656504
O            2.89355954375175       -0.81439089217531        0.32894147181671
C            2.96807073918091       -2.04792141978707        1.02601306885418
N           -1.78067883433865       -0.93264038598879        0.59306971753888
C           -2.75451209302100       -0.05632339608700        0.11352312237943
O           -3.95112150623495       -0.20783964772027        0.21140827528893
C           -2.07161773619964       -2.14751068334493        1.30392557865715
H           -2.41350944308004        2.20461893258901       -2.14189091540155
H           -3.81082970069734        1.92367207170385       -1.06397146684280
H           -2.49538288823712        3.02554657354471       -0.57350680718837
H            3.55872227444742        1.47167274084430       -0.10028588387550
H            2.59835454524435        2.52575098354976       -1.18894430670373
H            3.27414907017821        0.98893623367328       -1.79002847199320
H            4.02832684162546       -2.27298922866027        1.11877237350012
H            2.50656805811848       -1.95983185683795        2.01015850260451
H            2.45773882582081       -2.83415556196669        0.46801014804716
H           -3.06279154978404       -2.48415326308455        1.00273383684804
H           -1.31791371308549       -2.89392054381624        1.05713100943874
H           -2.06638043489004       -1.97281679649087        2.38296948083514
28
 energy: -49.400384901601 gnorm: 0.004843915190 xtb: 6.6.0 (conda-forge)
C           -2.74104679873456        2.10628253232493       -1.10658152329804
N           -2.09064863299768        0.98708929769644       -0.48168046149234
C           -0.72639396177853        0.76392803759724       -0.38545779337060
C           -0.55713635283662       -0.43490866659744        0.28509599143119
N            0.63061690214053       -1.00923481508358        0.55564001498647
C            1.66071426325759       -0.33917938089314        0.13266361352375
N            1.61243151071292        0.84996266976270       -0.51735989506302
C            0.39065562912889        1.51323781964704       -0.84403534530542
O            0.41042436613779        2.57596393449016       -1.43379252809468
C            2.84560709116957        1.49181317338201       -0.92432499673962
O            2.89189664614624       -0.81444833152085        0.33168782922001
C            2.96779699554322       -2.04827395423633        1.02691186835730
N           -1.78374550672542       -0.92857169176633        0.59705725331005
C           -2.75665571970604       -0.05199924455688        0.11728288560186
O           -3.95364802454909       -0.20192910330211        0.21221479578237
C           -2.06815400856957       -2.15073617994278        1.29686766654309
H           -2.41729133566452        2.20037118203709       -2.14324317686914
H           -3.81312534252590        1.92213990465739       -1.06278027019974
H           -2.50073585579194        3.03082638644807       -0.58013873218344
H            3.54901557070683        1.50948523152245       -0.09182342258398
H            2.59192195580271        2.50806467262427       -1.23269887467719
H            3.29413676277909        0.95632094455481       -1.76387929453165
H            4.02824560876027       -2.27247301641615        1.11699798874049
H            2.50854967826833       -1.96199289187604        2.01227278723204
H            2.45679979217840       -2.83450862514157        0.46946182613178
H           -3.06820023152207       -2.47662814284845        1.01251538775156
H           -1.32488021420338       -2.89853061723185        1.02311599786204
H           -2.03735078712705       -1.99207112533110        2.37811040793483
28
 energy: -49.400483818137 gnorm: 0.004984392741 xtb: 6.6.0 (conda-forge)
C           -2.73999229139346        2.10772419119081       -1.10630236866321
N           -2.09050762195064        0.99210623337673       -0.47527446920557
C           -0.72748457939547        0.76562463913911       -0.37999322819084
C           -0.55955790635579       -0.43402208210525        0.28887803229810
N            0.62763873163262       -1.00972593824801        0.55979780056104
C            1.65761332446518       -0.33927429754294        0.13781573905783
N            1.61198549485935        0.85033356382855       -0.51266028339818
C            0.39214698189162        1.51432543684397       -0.83720389399556
O            0.40964697175560        2.57774515688599       -1.42673329056305
C            2.84503438933737        1.48758874088635       -0.92541001654376
O            2.89023220852078       -0.81031509971093        0.33544923083437
C            2.97240093102091       -2.04547088306995        1.02675055828241
N           -1.78806465748089       -0.92623096099651        0.59911991305231
C           -2.75964564613538       -0.04832054391222        0.12057850224967
O           -3.95737162217146       -0.19505115647540        0.21271390750665
C           -2.06901509333905       -2.15411660151753        1.28933321999605
H           -2.41650086333524        2.19554614645324       -2.14375490580303
H           -3.81214146643697        1.92385233981529       -1.06083666532471
H           -2.49914646015134        3.03542256940904       -0.58579474647215
H            3.53545618193645        1.54856469425105       -0.08372152303932
H            2.58304608884143        2.48623486254142       -1.27847753381672
H            3.31330726920609        0.92157150447513       -1.73331725412314
H            4.03385039500813       -2.26562423809432        1.11191481387427
H            2.51609907065504       -1.96357902173018        2.01426010424032
H            2.46145119998204       -2.83189004328343        0.46908548471754
H           -3.07991515481565       -2.46503402362044        1.02517103202252
H           -1.34173356645269       -2.90695121767814        0.98716183088924
H           -2.00903230969858       -2.01103397111141        2.37155000955689
28
 energy: -49.400577525860 gnorm: 0.004630963590 xtb: 6.6.0 (conda-forge)
C           -2.73515761586275        2.10917778543135       -1.10518246816397
N           -2.08948073869817        0.99440360002988       -0.46943852700032
C           -0.72828508198238        0.76444197544770       -0.37522413244023
C           -0.56189952344040       -0.43596042095472        0.29177526224657
N            0.62529277326609       -1.01239230078352        0.56411519418857
C            1.65400864648957       -0.33910195186130        0.14310810114777
N            1.60824121710073        0.85062373463794       -0.50868643829733
C            0.39188827447665        1.51479106875042       -0.83157089945612
O            0.40644915199482        2.57843710353332       -1.42163812071551
C            2.84221548093494        1.48328190288753       -0.92566399645010
O            2.88911645151929       -0.80269011574785        0.33991303763976
C            2.98130887360439       -2.04009131502514        1.02600893467725
N           -1.79236551481511       -0.92663559410629        0.59863446858000
C           -2.76250073588590       -0.04647099818103        0.12260253247862
O           -3.96096487577100       -0.18943702207927        0.21317714083072
C           -2.07473888519681       -2.15748700588489        1.28250436069639
H           -2.41155996181946        2.19096732029256       -2.14328808778246
H           -3.80814778860593        1.92967772204347       -1.05827030466894
H           -2.49002115476082        3.03846075929970       -0.58943347478533
H            3.51897669651000        1.58475229939928       -0.07780626899317
H            2.57490494660525        2.46268070998739       -1.32085741159761
H            3.32872205293738        0.89021030973247       -1.70123218901231
H            4.04439102726066       -2.25380201158004        1.10504159375866
H            2.52861738868616       -1.96447480361896        2.01616705792645
H            2.47163419829196       -2.82690108417230        0.46734680984084
H           -3.09725611862554       -2.44933622398466        1.04024053054434
H           -1.36889172125074       -2.91956286146227        0.95388181068496
H           -1.98469746296285       -2.02756258203076        2.36387548412248
28
 energy: -49.400583622707 gnorm: 0.008880579876 xtb: 6.6.0 (conda-forge)
C           -2.73198056387234        2.11031979343244       -1.10244998001845
N           -2.08850904783300        0.99692754572244       -0.46162996997515
C           -0.72832598159605        0.76565642039517       -0.36937677372859
C           -0.56259688277849       -0.43586851874996        0.29517390577452
N            0.62460294088088       -1.01283086750611        0.56878873007952
C            1.65180530631930       -0.33618061679363        0.14807733240488
N            1.60345118710712        0.85238221613957       -0.50638349577021
C            0.39023290976731        1.51817357220321       -0.82688152063013
O            0.40356261277365        2.58187304298095       -1.41703888943978
C            2.84068625268999        1.47808003508221       -0.92590508776038
O            2.88880203071299       -0.79444374084751        0.34351730960088
C            2.98720513976861       -2.03446954340466        1.02489679740265
N           -1.79347942737667       -0.92657315555091        0.59915488187604
C           -2.76324129520657       -0.04537574116227        0.12532418424669
O           -3.96202025667502       -0.18760297887170        0.21501498147629
C           -2.07911374567826       -2.16219697191602        1.27384361103419
H           -2.41003513735630        2.18528899443252       -2.14178064595640
H           -3.80573177652078        1.93506427497611       -1.05257712723594
H           -2.48190134800147        3.04159239792796       -0.59239222632395
H            3.49416338674983        1.63724434021355       -0.06189443182856
H            2.56792883887118        2.43385124558736       -1.38488146821012
H            3.35745689315249        0.84241519534455       -1.65522850016645
H            4.05121203247203       -2.24529584691684        1.09911604415349
H            2.53750173108586       -1.96313172626461        2.01694712783607
H            2.47703374544527       -2.82016266949333        0.46490573323659
H           -3.11648728709162       -2.42628641714908        1.05885891936641
H           -1.40236726404062       -2.93746338017697        0.91027732602976
H           -1.95005499376930       -2.05098689963442        2.35462323252610
28
 energy: -49.400675693766 gnorm: 0.005591854353 xtb: 6.6.0 (conda-forge)
C           -2.72333340706883        2.11134343654572       -1.10027299490417
N           -2.08740942670251        0.99115641028839       -0.46290222942200
C           -0.72822082891477        0.75900142670310       -0.37062747253337
C           -0.56284361949232       -0.44294373962443        0.29276985250123
N            0.62604942656055       -1.01763743063175        0.56859260531327
C            1.65103384908881       -0.33615713355722        0.14877679518317