21
 energy: -38.982745037417 gnorm: 0.000597670489 xtb: 6.6.0 (conda-forge)
C           -2.71431506785602       -1.14603798423139        0.39464037938332
N           -1.97863425884100        0.01400968439600       -0.01847966709343
C           -2.45287230481728        1.19837102957889       -0.44147141467302
N           -1.51015578600018        2.06633371344132       -0.74744712931358
C           -0.35711622701672        1.40935205225101       -0.50971774723378
C           -0.60809826082082        0.12372844145449       -0.05350470085643
C            0.43706598658221       -0.79786342691602        0.28449601707217
O            0.30258875650169       -1.93569633222449        0.68867813886116
N            1.70196712231390       -0.23060389837862        0.08913335181422
C            1.99527253215726        1.04947095890589       -0.36165760965548
O            3.13030434803844        1.44431365752106       -0.49207632815819
N            0.91882185737427        1.85423132498333       -0.66274215252449
C            2.84606381109062       -1.07250622942862        0.40023090987740
H           -2.47009994950419       -1.39356880445275        1.42875345839937
H           -2.44212179053936       -2.00016518605400       -0.22688110944709
H           -3.78066860876729       -0.94855079355621        0.30466082912998
H           -3.49965141732030        1.41386925838877       -0.52182200773947
H            1.10651656746893        2.79058450370513       -0.99109276645546
H            2.55118019906516       -2.11064497978608        0.26206343467224
H            3.15608934839210       -0.92134036675734        1.43508798077257
H            3.66776314249856       -0.80748662284036       -0.26085186683201
