21
 energy: -38.961650212206 gnorm: 0.166826264280 xtb: 6.6.0 (conda-forge)
C           -2.69610000000000       -1.17280000000000        0.40900000000000
N           -1.94490000000000        0.00310000000000       -0.01770000000000
C           -2.45100000000000        1.19070000000000       -0.43660000000000
N           -1.49220000000000        2.09950000000000       -0.75970000000000
C           -0.35550000000000        1.41890000000000       -0.52330000000000
C           -0.61400000000000        0.16970000000000       -0.08020000000000
C            0.43010000000000       -0.69430000000000        0.23520000000000
O            0.19270000000000       -1.85440000000000        0.67030000000000
N            1.72200000000000       -0.24460000000000        0.06330000000000
C            1.95210000000000        1.05140000000000       -0.37000000000000
O            3.13080000000000        1.48620000000000       -0.48840000000000
N            0.90620000000000        1.88150000000000       -0.67210000000000
C            2.85600000000000       -1.11490000000000        0.41370000000000
H           -2.45400000000000       -1.40810000000000        1.46660000000000
H           -2.43300000000000       -2.03910000000000       -0.23360000000000
H           -3.78810000000000       -0.98700000000000        0.32580000000000
H           -3.51080000000000        1.40010000000000       -0.50570000000000
H            1.07470000000000        2.85800000000000       -1.00440000000000
H            2.60600000000000       -2.18590000000000        0.25650000000000
H            3.13060000000000       -0.95750000000000        1.47790000000000
H            3.73830000000000       -0.90070000000000       -0.22660000000000
21
 energy: -38.978513823080 gnorm: 0.071543013321 xtb: 6.6.0 (conda-forge)
C           -2.69985012750254       -1.15801740081616        0.40314539614537
N           -1.96214788887181        0.00767195458411       -0.01934118791443
C           -2.45695151913765        1.19268916172224       -0.43708623960672
N           -1.51300501386267        2.08209685864953       -0.75317413147424
C           -0.35920386782419        1.42046670992990       -0.52242876473344
C           -0.61071961850143        0.14669364785992       -0.07233313812633
C            0.44319018342561       -0.74317901453572        0.25230517347209
O            0.24288516629305       -1.88687750695832        0.67635535944283
N            1.72279031716810       -0.24524046526977        0.06527657275575
C            1.97339573999959        1.04954832991718       -0.36896729455016
O            3.12053281132173        1.46581226185681       -0.48830157441278
N            0.91592705615701        1.87172690447239       -0.67046638580310
C            2.85093760113951       -1.09816394459538        0.40919284773701
H           -2.44866668255376       -1.40004383566200        1.44085732758254
H           -2.42772913852486       -2.01576889512659       -0.22016072746412
H           -3.77292087490097       -0.96634887230553        0.31857924134400
H           -3.50648984224136        1.40433933070251       -0.50836835887599
H            1.09099135814250        2.82277397893661       -0.99370919407244
H            2.56467381095932       -2.14461319088896        0.25772142052777
H            3.12513887158055       -0.95006428810506        1.45858398122610
H            3.70712165773426       -0.85570172436771       -0.22768032319970
21
 energy: -38.982337937422 gnorm: 0.016845741208 xtb: 6.6.0 (conda-forge)
C           -2.70180026344683       -1.14835841160498        0.39879942781900
N           -1.97409991041383        0.01312424996707       -0.02136655309156
C           -2.45690931396458        1.19690236836881       -0.43850038601165
N           -1.52207848133406        2.06952641736557       -0.74788948417418
C           -0.36157349441608        1.41827987352752       -0.51991761997188
C           -0.60833142824923        0.13075676197947       -0.06597470883400
C            0.44426721109732       -0.78303067074231        0.26871693736659
O            0.28094034937497       -1.91627039291665        0.68220009264509
N            1.71206348610600       -0.23960142501560        0.06968092540372
C            1.99163107051344        1.05046044203916       -0.36799944999923
O            3.12283678396654        1.45081924833292       -0.48795721307661
N            0.91986284949439        1.86053941161811       -0.66884869857562
C            2.84280728826081       -1.08215497704798        0.40464917752636
H           -2.44857977540861       -1.39258545396635        1.42979430979018
H           -2.42712695130861       -2.00236819960862       -0.21872051092584
H           -3.76651803865977       -0.95540339940286        0.31409749043171
H           -3.50278918852017        1.41065423365716       -0.51201734680134
H            1.10295728588386        2.79674816908637       -0.98755106970024
H            2.54409957573109       -2.11677651931668        0.25596868098644
H            3.12635907489505       -0.93950208736024        1.44647240569530
H            3.68188187039830       -0.82195963895989       -0.23363640650223
21
 energy: -38.982650767825 gnorm: 0.007983615137 xtb: 6.6.0 (conda-forge)
C           -2.70626303379900       -1.14728755199996        0.39746071837841
N           -1.97722511788756        0.01398855101326       -0.02102376883727
C           -2.45570560022554        1.19856888897115       -0.43972367750386
N           -1.51782096529107        2.06855085955148       -0.74773686530539
C           -0.36037872466573        1.41532939480800       -0.51670408554114
C           -0.60863321343366        0.12730434880199       -0.06181225654390
C            0.44065768035531       -0.79225960591223        0.27678828649106
O            0.29159321820674       -1.92788269521124        0.68659970527563
N            1.70523060129731       -0.23601395331503        0.07636611037531
C            1.99479956644029        1.05025198041894       -0.36479878014982
O            3.12944717009057        1.44606763699559       -0.48952674896694
N            0.92004879616246        1.85608401916601       -0.66708507082047
C            2.84218812749948       -1.07697585063108        0.40239372961410
H           -2.45480082010357       -1.39164524972081        1.42999165109661
H           -2.43131120709024       -2.00138886501144       -0.22175503749809
H           -3.77250679061424       -0.95389232761025        0.31143205254624
H           -3.50243303233457        1.41323842538076       -0.51585034502972
H            1.10746825988614        2.79290295015089       -0.98934016032019
H            2.54658197326678       -2.11284319703362        0.25368166150678
H            3.13376641799544       -0.93336488722368        1.44332705290821
H            3.67519669424466       -0.80893287158873       -0.24268417167557
21
 energy: -38.982729345743 gnorm: 0.002877578153 xtb: 6.6.0 (conda-forge)
C           -2.71040705231205       -1.14655584064079        0.39643626813317
N           -1.97876709745039        0.01459921157564       -0.02018777701399
C           -2.45418071236554        1.19957344609358       -0.44078710606637
N           -1.51274143616569        2.06825228907405       -0.74756699093696
C           -0.35869715645055        1.41217013468605       -0.51369609873944
C           -0.60865454206954        0.12511939896149       -0.05846747810394
C            0.43741052481114       -0.79733117105393        0.28153879251559
O            0.29868296790203       -1.93371170718770        0.68978619709942
N            1.70065475175157       -0.23295338494887        0.08248803246694
C            1.99528521073905        1.04942376892402       -0.36387602397260
O            3.13106572059262        1.44389590333490       -0.48948292153321
N            0.91945666257150        1.85333193933409       -0.66582349213024
C            2.84326596663285       -1.07376401511138        0.40069705595950
H           -2.46227149386683       -1.39188793276474        1.43030665931437
H           -2.43677718465448       -2.00089730917919       -0.22433723962223
H           -3.77771052391686       -0.95265712741593        0.30902237278069
H           -3.50137341003942        1.41495794596560       -0.51904833366010
H            1.10925848920934        2.79099710180418       -0.99056240786925
H            2.55243946530761       -2.11173493452847        0.25375987439673
H            3.14250752983143       -0.92838435427259        1.43997470142333
H            3.67145331994222       -0.80264336265001       -0.25017408444142
21
 energy: -38.982737848083 gnorm: 0.001724150744 xtb: 6.6.0 (conda-forge)
C           -2.71181221135871       -1.14631214160219        0.39590296873064
N           -1.97871591900099        0.01447115998050       -0.01965259127534
C           -2.45359783621335        1.19928931465313       -0.44099836854048
N           -1.51128209746763        2.06756262184684       -0.74779322554264
C           -0.35800934466981        1.41081721886520       -0.51242034760022
C           -0.60840948953188        0.12449670471162       -0.05692204108195
C            0.43692454744488       -0.79775750529180        0.28282243821535
O            0.30038534270782       -1.93444749320564        0.69003586022727
N            1.70060541461608       -0.23196926658430        0.08506494362895
C            1.99510578289463        1.04947805085178       -0.36292945396033
O            3.13065974300044        1.44410713619850       -0.49018212955727
N            0.91909487990504        1.85324349300183       -0.66513827391525
C            2.84424230912474       -1.07324843997871        0.40039071478859
H           -2.46511350954026       -1.39216491915725        1.42997981119581
H           -2.43880856565532       -2.00063327949447       -0.22519783019142
H           -3.77896369941228       -0.95133449901074        0.30766046780438
H           -3.50066070432832        1.41486869925060       -0.51979777422042
H            1.10847011232957        2.79058610292447       -0.99112891933403
H            2.55314662151620       -2.11150441600650        0.25486553500887
H            3.14617431488466       -0.92677707714810        1.43861162103549
H            3.67046430875449       -0.80297146480478       -0.25317340541602
21
 energy: -38.982743066981 gnorm: 0.001154100106 xtb: 6.6.0 (conda-forge)
C           -2.71429773137722       -1.14589908174875        0.39489187393847
N           -1.97853395827069        0.01406494344248       -0.01853741420956
C           -2.45273473295402        1.19838413667457       -0.44154121699921
N           -1.50963963535573        2.06632656605472       -0.74743484201290
C           -0.35696959346228        1.40884219397773       -0.51001130293158
C           -0.60797935767948        0.12350845604084       -0.05390189914170
C            0.43677429903178       -0.79800110269672        0.28455991435256
O            0.30292821663510       -1.93558046204201        0.68934435743681
N            1.70167212714777       -0.23051326235304        0.08916812135369
C            1.99506495847700        1.04942343958204       -0.36198666564362
O            3.13000686767041        1.44471201346826       -0.49168793357247
N            0.91864032070347        1.85384935096679       -0.66351130380750
C            2.84610161043417       -1.07250388707735        0.40024392001584
H           -2.47014049728235       -1.39316995951906        1.42908605120152
H           -2.44226448245318       -2.00010070245723       -0.22658940992951
H           -3.78074771258157       -0.94847452136787        0.30492953105043
H           -3.49946761032023        1.41408001443946       -0.52156072873565
H            1.10648109671053        2.79037217289114       -0.99143209232732
H            2.55232148334255       -2.11072119478974        0.25951354074687
H            3.15434093819111       -0.92304466536058        1.43585037912385
H            3.66834339339285       -0.80575444812569       -0.25939287990902
21
 energy: -38.982745037407 gnorm: 0.000597105135 xtb: 6.6.0 (conda-forge)
C           -2.71431506785602       -1.14603798423139        0.39464037938332
N           -1.97863425884100        0.01400968439600       -0.01847966709343
C           -2.45287230481728        1.19837102957889       -0.44147141467302
N           -1.51015578600018        2.06633371344132       -0.74744712931358
C           -0.35711622701672        1.40935205225101       -0.50971774723378
C           -0.60809826082082        0.12372844145449       -0.05350470085643
C            0.43706598658221       -0.79786342691602        0.28449601707217
O            0.30258875650169       -1.93569633222449        0.68867813886116
N            1.70196712231390       -0.23060389837862        0.08913335181422
C            1.99527253215726        1.04947095890589       -0.36165760965548
O            3.13030434803844        1.44431365752106       -0.49207632815819
N            0.91882185737427        1.85423132498333       -0.66274215252449
C            2.84606381109062       -1.07250622942862        0.40023090987740
H           -2.47009994950419       -1.39356880445275        1.42875345839937
H           -2.44212179053936       -2.00016518605400       -0.22688110944709
H           -3.78066860876729       -0.94855079355621        0.30466082912998
H           -3.49965141732030        1.41386925838877       -0.52182200773947
H            1.10651656746893        2.79058450370513       -0.99109276645546
H            2.55118019906516       -2.11064497978608        0.26206343467224
H            3.15608934839210       -0.92134036675734        1.43508798077257
H            3.66776314249856       -0.80748662284036       -0.26085186683201
