21
 energy: -45.361466011362 gnorm: 0.234643687942 xtb: 6.6.0 (conda-forge)
C            0.98490000000000       -0.90610000000000       -0.14630000000000
C            1.98910000000000        0.13430000000000        0.26100000000000
O            2.57510000000000        0.82640000000000       -0.61360000000000
O            2.30710000000000        0.30580000000000        1.60500000000000
C           -0.49910000000000       -0.54820000000000        0.17210000000000
C           -1.11270000000000        0.47020000000000       -0.83490000000000
C           -0.44530000000000        1.81430000000000       -0.87050000000000
O            0.34750000000000        2.09960000000000       -1.80750000000000
O           -0.72680000000000        2.76110000000000        0.10970000000000
C           -1.31120000000000       -1.81980000000000        0.04520000000000
O           -2.13830000000000       -2.14390000000000        0.94080000000000
O           -1.18240000000000       -2.61960000000000       -1.08840000000000
O           -0.63030000000000       -0.09300000000000        1.50200000000000
H            1.26010000000000       -1.84190000000000        0.38880000000000
H            1.09530000000000       -1.11580000000000       -1.23350000000000
H            2.99040000000000        0.99570000000000        1.89330000000000
H           -2.18310000000000        0.63270000000000       -0.57990000000000
H           -1.09070000000000        0.03920000000000       -1.86090000000000
H           -0.28820000000000        3.67400000000000        0.09130000000000
H           -1.73090000000000       -3.46470000000000       -1.19360000000000
H           -0.21050000000000        0.79970000000000        1.57990000000000
21
 energy: -45.399258924079 gnorm: 0.083393103609 xtb: 6.6.0 (conda-forge)
C            0.99424117825005       -0.89960133255797       -0.13872197695019
C            2.00463850299246        0.15145888810935        0.24441382571235
O            2.58813506937583        0.82432771071070       -0.57876727784438
O            2.26612453471636        0.28971262992105        1.57416587627272
C           -0.49408610209606       -0.54951034570429        0.16897363404790
C           -1.10746825834328        0.47958336682914       -0.82997339741646
C           -0.42210498347216        1.82106988232466       -0.88771905988967
O            0.32425293202160        2.12482566144919       -1.79293236643086
O           -0.71945232850225        2.70359870085583        0.10844294183771
C           -1.33412575091925       -1.82268074419821        0.05856914124998
O           -2.12777703520057       -2.15410588290892        0.90980775712414
O           -1.16033545912840       -2.57102431686697       -1.06694224635321
O           -0.63818347542216       -0.10159237322360        1.49027195747951
H            1.24649714982241       -1.82583251489712        0.40053854212747
H            1.10152474009162       -1.09327260087871       -1.21419748813968
H            2.94925406711912        0.95662176020333        1.82880701479610
H           -2.16478614358823        0.62877676381992       -0.55841477726834
H           -1.07401173232918        0.05522913585842       -1.84304801120217
H           -0.29765757704033        3.59593582887826        0.05307085175969
H           -1.70778913613839       -3.39134028122064       -1.14289633527832
H           -0.22689019220919        0.77782006349660        1.57655139436572
21
 energy: -45.409724632180 gnorm: 0.028176344522 xtb: 6.6.0 (conda-forge)
C            0.99508310403146       -0.89678681026629       -0.14131397367031
C            2.00769991698958        0.16793980318132        0.22451351130292
O            2.60374164884380        0.83279493737923       -0.56569539595586
O            2.21060825948071        0.27023340778584        1.54871690533617
C           -0.48523430678722       -0.53821840786339        0.17709891846270
C           -1.10016406099828        0.47559891397381       -0.83306313688641
C           -0.40597105938559        1.81984319688020       -0.91158309569302
O            0.31423492763624        2.14941631639352       -1.80035948010908
O           -0.70762252715150        2.63059652028618        0.12173359707312
C           -1.33867309424564       -1.82087583622288        0.07904506120570
O           -2.13099008409093       -2.15654862038940        0.89549264289745
O           -1.12260857664822       -2.50851082360020       -1.05401999035743
O           -0.64597116313802       -0.10250488816026        1.49477413670856
H            1.23934596861189       -1.80402966891656        0.41639236633306
H            1.09934177326733       -1.08736623998601       -1.20878951982289
H            2.89935906766110        0.91648504260969        1.77093355938912
H           -2.14148777662843        0.62949064157506       -0.53607370870460
H           -1.06524661483317        0.04990756283681       -1.83619789752733
H           -0.30052691434803        3.50746633637219        0.03120799008827
H           -1.67682809957736       -3.30475574778071       -1.10597071488788
H           -0.24809038868975        0.76982436391183        1.59315822481772
21
 energy: -45.411523584826 gnorm: 0.012076153613 xtb: 6.6.0 (conda-forge)
C            0.98909495092693       -0.89494752778793       -0.14875563387709
C            2.00261477394744        0.16942614965082        0.21382658884908
O            2.62195767657372        0.83542817243969       -0.56602671112463
O            2.16679143681920        0.27090059502695        1.54157425760276
C           -0.48134396443406       -0.52651713788728        0.18645762837890
C           -1.09570618049921        0.46527413602624       -0.83798424855392
C           -0.39137940257336        1.80340194939865       -0.91769988549050
O            0.28149740329321        2.17396238629243       -1.83902136205776
O           -0.66933541338226        2.57739431162030        0.14957805078208
C           -1.34014027842912       -1.80580426476912        0.08115001151070
O           -2.13713207670738       -2.16265562035115        0.89330538109765
O           -1.09350775702900       -2.47445151635036       -1.05350033295436
O           -0.64624022325315       -0.09224676931549        1.50235931947522
H            1.23589509049187       -1.78977797576256        0.42602192691268
H            1.08355612152012       -1.09676347040255       -1.21424910584538
H            2.86320157728766        0.90981193656274        1.75509256822198
H           -2.12787986705510        0.63583814501921       -0.52165687697091
H           -1.07298973554017        0.02640974968581       -1.83498317775113
H           -0.28052290490152        3.45947117065821        0.03618769936087
H           -1.64753495835782       -3.26860700410699       -1.09939547539120
H           -0.26089626869801        0.78445258435236        1.60771937782493
21
 energy: -45.412225128221 gnorm: 0.013469324916 xtb: 6.6.0 (conda-forge)
C            0.98353441534680       -0.89123275252320       -0.15075303121537
C            1.99241074095288        0.17645477677130        0.20859535450685
O            2.62532248991914        0.83851023104737       -0.56698847530911
O            2.13471116587607        0.28892032674570        1.53666734387234
C           -0.48187775200815       -0.51962392019700        0.19388477903025
C           -1.09976473144599        0.45547896018886       -0.84165220836163
C           -0.40564337214481        1.79611748384337       -0.93488324535725
O            0.25073867718675        2.17903080361385       -1.86111785624076
O           -0.61501024567591        2.53611938673925        0.17775972047314
C           -1.32801176289058       -1.80546852561566        0.08445309515110
O           -2.13845401136301       -2.17000711423948        0.88387199206204
O           -1.07443295985338       -2.45613295898660       -1.05720549680536
O           -0.64615831671880       -0.07984972950660        1.50549030715768
H            1.24120748096709       -1.77617843963816        0.43440262648740
H            1.06519420369285       -1.10601727750712       -1.21504747624767
H            2.83355874414044        0.92802324858449        1.74459993268340
H           -2.12770830711771        0.63936021083046       -0.52168449158640
H           -1.08345313208075       -0.00329979464387       -1.82993565561207
H           -0.21278427240067        3.41028956473767        0.06562425982686
H           -1.63400183028163       -3.24681060259263       -1.10734024088226
H           -0.27937722410065        0.80631612234799        1.61125876636679
21
 energy: -45.412887303032 gnorm: 0.016494499152 xtb: 6.6.0 (conda-forge)
C            0.97892515007466       -0.88710701646227       -0.14966718134671
C            1.98194508197928        0.18485910554535        0.20616812962860
O            2.62006588303035        0.84274604873107       -0.56825618913030
O            2.11136075476878        0.31368803285452        1.53315290146784
C           -0.48640145778373       -0.51883736621325        0.19968768880338
C           -1.10508890414430        0.44905721077732       -0.84079832860541
C           -0.39664262598843        1.77946891244487       -0.93310835870946
O            0.20734608780946        2.18529336852938       -1.88873272929041
O           -0.54755557166143        2.50106272699498        0.20343223218443
C           -1.32529982441818       -1.80630069967401        0.08038416074714
O           -2.13568480756966       -2.18227971474051        0.87423250225222
O           -1.06432125956974       -2.45031776508231       -1.06236167762866
O           -0.64791616084800       -0.07448813313966        1.50704916783906
H            1.24836490310228       -1.76632607931156        0.43901075685550
H            1.05025378079642       -1.11111502684114       -1.21309049246854
H            2.80539855196085        0.95944171533271        1.73966928608718
H           -2.13074740498635        0.64852776037164       -0.52176998578036
H           -1.09737870759924       -0.02132824740230       -1.82384278300012
H           -0.13890318808575        3.37262363248182        0.08819885301728
H           -1.62235730955708       -3.24313033540978       -1.11768379824573
H           -0.30536297131023        0.82446187021316        1.60832584532300
21
 energy: -45.413741771717 gnorm: 0.011992340941 xtb: 6.6.0 (conda-forge)
C            0.97259439442959       -0.87802671750428       -0.14653423133024
C            1.96576479486721        0.20311297134475        0.20190127707144
O            2.60650559729328        0.85297815537560       -0.57643909684625
O            2.09044884115305        0.35179259019793        1.52630889947065
C           -0.49811564680355       -0.52378676947623        0.20766982430125
C           -1.11308963914696        0.44502351990005       -0.83575386000481
C           -0.38746937405408        1.76261505713120       -0.93111191241275
O            0.16426495493645        2.18431145399424       -1.90719737117899
O           -0.45782690381756        2.46644216945828        0.22477202840377
C           -1.32796192141125       -1.81338596829072        0.07657128829348
O           -2.13157339821477       -2.20552860967314        0.86806639073149
O           -1.05977994720142       -2.45290348105226       -1.06762850926478
O           -0.65646512954391       -0.07837432321964        1.51142521139407
H            1.25524071772392       -1.75475429274713        0.44011787765231
H            1.03817333069109       -1.10726677357903       -1.20909839247721
H            2.77534034203405        1.00807618246156        1.73413821511352
H           -2.13969757174512        0.65602216790756       -0.52593686777778
H           -1.11083136332225       -0.03105831850778       -1.81543859484296
H           -0.02569757854687        3.32844438017227        0.11719345474622
H           -1.60941970903156       -3.25218978478452       -1.13325514692589
H           -0.35040479028940        0.83845639089132        1.60022951588335
21
 energy: -45.414412815883 gnorm: 0.024110448817 xtb: 6.6.0 (conda-forge)
C            0.96827894501671       -0.87125914410883       -0.13917701639472
C            1.94691491570994        0.22558753385050        0.19871345949572
O            2.58356153410576        0.86774382218018       -0.58841787224388
O            2.06491285549516        0.39937473147462        1.52063147244341
C           -0.51021251873871       -0.53474781871169        0.21462755704024
C           -1.11504923141055        0.44380213961369       -0.82813283267666
C           -0.37226362160452        1.74982082447533       -0.93322854946428
O            0.10249528009250        2.19944653504528       -1.94373621103971
O           -0.34426647456560        2.42156167864044        0.25119908787978
C           -1.32744685667447       -1.83078866158538        0.07820030600639
O           -2.13265312616509       -2.22982550543335        0.86250760745376
O           -1.06013961823455       -2.45916649169519       -1.07326566369817
O           -0.67186251175714       -0.09251092005202        1.51695597482361
H            1.26111675535934       -1.74560611490925        0.44658293402081
H            1.03654049852868       -1.10071819561998       -1.20091060188379
H            2.73739185598241        1.06884672214408        1.72748570046727
H           -2.14197243785122        0.66303593534763       -0.52132633447864
H           -1.12265433233384       -0.02784737197472       -1.80924034663702
H            0.10230833668816        3.27755472724845        0.14191791387037
H           -1.60311275250626       -3.26201043943081       -1.15159122607985
H           -0.40188749513680        0.83770601350107        1.59020464109522
21
 energy: -45.415030471830 gnorm: 0.014290248995 xtb: 6.6.0 (conda-forge)
C            0.96315841913132       -0.86846982985228       -0.13129457733318
C            1.92696578349125        0.24736662087975        0.19192435753298
O            2.54914963543659        0.88358272772681       -0.61079388070683
O            2.04389194719513        0.44897031508071        1.51007097183661
C           -0.52295613242674       -0.54715466815272        0.21960079109273
C           -1.11558575777385        0.44795470137158       -0.81629967661254
C           -0.35208166901021        1.74237325447537       -0.92594255451351
O            0.08453122929107        2.19988196953963       -1.93575691025195
O           -0.26120292473074        2.39401314286742        0.25346394659266
C           -1.33441972152502       -1.84670978954648        0.07591255419506
O           -2.13119096336898       -2.25578657148629        0.86172236132520
O           -1.06685257611228       -2.46690504779616       -1.08149266504780
O           -0.69059340705930       -0.11643768283205        1.52579372041148
H            1.26399723307843       -1.74045660658203        0.45396020763051
H            1.03847001656061       -1.09433555407001       -1.19319387797383
H            2.70167434400374        1.13486457194726        1.71000115892904
H           -2.14356033945638        0.67385031386472       -0.51434476627606
H           -1.12784018186639       -0.01250769677890       -1.80289041405000
H            0.21076704365670        3.23764206986875        0.14827285461799
H           -1.59793793775793       -3.27594562303104       -1.16784837024212
H           -0.43838404075713        0.81420938250604        1.58913476884340
21
 energy: -45.415396414803 gnorm: 0.016698316867 xtb: 6.6.0 (conda-forge)
C            0.95977062324444       -0.86902822222605       -0.12250629404031
C            1.90559030748123        0.26626419904264        0.19060419355691
O            2.52195161934254        0.89779353052285       -0.62242966398409
O            2.01587558410400        0.48682118012166        1.50532135715756
C           -0.52822197584560       -0.55211110709214        0.22046985893618
C           -1.11452420183623        0.44835069552116       -0.81134846564745
C           -0.34447233334674        1.73937007450350       -0.93180737141015
O            0.03002824061895        2.22049644414651       -1.96257605565794
O           -0.16411297677148        2.35076503262102        0.27388440635222
C           -1.34116248193290       -1.85061485968689        0.06512762765158
O           -2.12693957893367       -2.27447364195917        0.85571528685423
O           -1.06338988658273       -2.46614787688386       -1.09206950083294
O           -0.70563505525062       -0.13150781845564        1.53077815403898
H            1.26641356646414       -1.73183604957274        0.47328230724492
H            1.04050612758908       -1.10174941702331       -1.18297192308623
H            2.66331853011754        1.18496628403460        1.69490301336937
H           -2.13765080676320        0.68589282935369       -0.50064477031052
H           -1.14127620245786       -0.01036761828135       -1.79995065491327
H            0.31399952968731        3.18856994175836        0.15708835445834
H           -1.58481797289133       -3.28072103715853       -1.17723110744272
H           -0.46525065603699        0.79926743671376        1.59636124770515
21
 energy: -45.415736639588 gnorm: 0.011681369138 xtb: 6.6.0 (conda-forge)
C            0.96217220962495       -0.87616232960532       -0.11652830380035
C            1.90250884265067        0.26497781660365        0.19221825778981
O            2.50999886000148        0.90164870858935       -0.62494227015309
O            2.01358895118310        0.48681516572841        1.50466466882182
C           -0.52172504235476       -0.55278110823270        0.21758139972996
C           -1.10761247197411        0.44862633058394       -0.80887538316617
C           -0.34258051843245        1.74465957091908       -0.93089247729988
O            0.01981982458535        2.23615930906298       -1.96293676771048
O           -0.16298148395178        2.34533054462918        0.26606995522835
C           -1.33539857565681       -1.85212911479984        0.06014946665040
O           -2.12575584979095       -2.27182105478926        0.84964810902199
O           -1.06563240005888       -2.46024606659001       -1.10176095161095
O           -0.70628466212570       -0.13903201958876        1.53266723314259
H            1.26542480563972       -1.73086400549636        0.49165653720001
H            1.04613354168793       -1.11914762175776       -1.17521438977228
H            2.65462601099952        1.19260238380852        1.68436160722182
H           -2.12558744037266        0.69133589427426       -0.48753198674603
H           -1.14300331553309       -0.00856320492623       -1.79890359499442
H            0.30928068556100        3.18265313075333        0.13924832681260
H           -1.59305005491004       -3.27043034264167       -1.18331309554188
H           -0.45394191677261        0.78636801347528        1.61263365917600
21
 energy: -45.415971441865 gnorm: 0.008164247371 xtb: 6.6.0 (conda-forge)
C            0.96279653189113       -0.87944882258030       -0.10716026008611
C            1.89749408689545        0.26776756397865        0.19254530378641
O            2.48543512585655        0.91676553737888       -0.63061064235462
O            2.00797221746991        0.49989654180094        1.50255012617026
C           -0.52031639364039       -0.55331068040079        0.21212451738990
C           -1.11050874752609        0.44807873780329       -0.80845949637872
C           -0.34880373053360        1.74854466552507       -0.93397927162335
O           -0.00219740489922        2.24638701056439       -1.96215383024216
O           -0.12614431776510        2.32865868844103        0.26562341164275
C           -1.33024453873788       -1.85523465605052        0.05046264465112
O           -2.12082221620556       -2.27576672069384        0.84046210371225
O           -1.06694509405541       -2.45655242153997       -1.11564457975310
O           -0.71179732801801       -0.14940706847741        1.53267053990086
H            1.26342988097086       -1.72215027221514        0.51870229375527
H            1.05348719008080       -1.14078393312460       -1.16158569117240
H            2.63285277359244        1.22339259682402        1.67132721556404
H           -2.12315000085433        0.69577589955467       -0.47669936815246
H           -1.15645565287327       -0.00864360709304       -1.79852310721425
H            0.35709651692938        3.15946804782212        0.13400922124073
H           -1.59675066077096       -3.26568492571602       -1.19514418274670
H           -0.44642823780683        0.77224781819863        1.62948305191007
21
 energy: -45.416130047328 gnorm: 0.011506176206 xtb: 6.6.0 (conda-forge)
C            0.96192419456999       -0.88081819730910       -0.09367834222737
C            1.88150884290565        0.28280076674279        0.19272272434530
O            2.45572555352158        0.93389710485251       -0.63987057386157
O            2.00245310369992        0.52143591275510        1.49924337955305
C           -0.52458854578920       -0.55921054761751        0.21098500485211
C           -1.11162749816234        0.44873128742944       -0.80357628708745
C           -0.34668035658576        1.74878610943693       -0.93286961179324
O           -0.04371653575914        2.26396533952081       -1.97163422762434
O           -0.06991019401534        2.30818296017717        0.26373022963288
C           -1.33074541258289       -1.86239149724464        0.04003681955423
O           -2.12012728376693       -2.28831832204814        0.82858370700324
O           -1.06952800604490       -2.45637445668712       -1.13093872520134
O           -0.72371847980642       -0.16344697523312        1.53437926695190
H            1.26240598030698       -1.70961822211420        0.55172745337205
H            1.06337398193975       -1.16267902458085       -1.14231125326184
H            2.61208305381837        1.26093780016058        1.65822809032636
H           -2.12095466232203        0.70126888537929       -0.46667481245003
H           -1.16771245293861       -0.00356797431778       -1.79446846375477
H            0.42536637590926        3.13233523847285        0.12745582425890
H           -1.59875543232432       -3.26610444395447       -1.21542231725025
H           -0.43677622657375        0.75018825617957        1.64435211466194
21
 energy: -45.416289668258 gnorm: 0.008005511201 xtb: 6.6.0 (conda-forge)
C            0.96187780297859       -0.88037799555952       -0.08390741084649
C            1.87795933698036        0.28744517393839        0.19305848342606
O            2.44533586810251        0.93919018324643       -0.64263907068204
O            2.01371499317243        0.52003849243021        1.49975630461282
C           -0.52843332179392       -0.55964983577318        0.20971459709198
C           -1.11516608935559        0.45054220918209       -0.80414434394544
C           -0.35456039529862        1.75297829696024       -0.93316553974428
O           -0.06194396776427        2.27245130396550       -1.97037882656550
O           -0.06414069877680        2.30736949932085        0.25561992476129
C           -1.33686004205425       -1.85969206222091        0.03161727363897
O           -2.12199453216480       -2.29205236011115        0.82051700252134
O           -1.06992809561418       -2.45527602066083       -1.13792368977172
O           -0.73189463150400       -0.16427401013479        1.53134411911628
H            1.25655496508206       -1.69897924875884        0.57704294305147
H            1.07253287910949       -1.18006238927251       -1.12610809900566
H            2.61743960113286        1.26299429175010        1.65597007938191
H           -2.12526576793112        0.69763250790565       -0.46775288855936
H           -1.17045483108715        0.00109410579853       -1.79440291159432
H            0.43205814039442        3.13107893167884        0.11767872215948
H           -1.59805928668321       -3.26607516589055       -1.22704791407568
H           -0.39877192692495        0.73362409220554        1.65515124502867
21
 energy: -45.416438551044 gnorm: 0.007068605376 xtb: 6.6.0 (conda-forge)
C            0.95974881340801       -0.87980835167019       -0.07064313709030
C            1.87760991157734        0.28798143770254        0.19160490119711
O            2.42958905663851        0.94540226058879       -0.64780271577063
O            2.02159605459910        0.52620155980220        1.50029752162744
C           -0.53482183006345       -0.55883082365805        0.21252284074643
C           -1.11869169501970        0.45139416438906       -0.80620577510218
C           -0.36213157007857        1.75427138107970       -0.93553513311364
O           -0.09839286439834        2.28652469932992       -1.97516549292545
O           -0.03641417878932        2.29257085718633        0.25413368253845
C           -1.34000652156890       -1.85885932656093        0.02667235644284
O           -2.12720573344774       -2.29817517988093        0.80852124894333
O           -1.06624603281684       -2.44842921076369       -1.14532812903515
O           -0.74740461669334       -0.16238563521876        1.52989924296901
H            1.24841687417365       -1.68650841078617        0.60602440638636
H            1.07611136462038       -1.19721791638141       -1.10573929343017
H            2.61736204592130        1.27504358208208        1.65289681767372
H           -2.13125899527082        0.69359191422237       -0.47210372467734
H           -1.17134695562318        0.00287149540456       -1.79619723225262
H            0.45034955436021        3.11993492805093        0.10833586235686
H           -1.59349210824338       -3.25871162432210       -1.24475417173868
H           -0.35337057328506        0.71313819940385        1.66856592425437
21
 energy: -45.416520996571 gnorm: 0.005801659963 xtb: 6.6.0 (conda-forge)
C            0.95677121347479       -0.87964463349136       -0.06629564986846
C            1.87671968169368        0.28735841598685        0.19087990542237
O            2.43509614836385        0.93609650037201       -0.64977552447057
O            2.02701292817684        0.52443634051475        1.50083686366563
C           -0.53785483065320       -0.55500957482523        0.21640310040846
C           -1.11898399590204        0.45058919202462       -0.81122069810312
C           -0.36722550897954        1.75426788024143       -0.93734330680153
O           -0.10673368244710        2.29092091484460       -1.97381200744541
O           -0.04158354002306        2.29070397135051        0.25506255694355
C           -1.33899057056328       -1.85678413666360        0.03041661755695
O           -2.13131717728275       -2.29770118759624        0.80569589619628
O           -1.06092438457727       -2.44163724612544       -1.14308913322479
O           -0.75507862226111       -0.15351359317524        1.52963464367534
H            1.24495469827679       -1.68436012198241        0.61213894439033
H            1.06970213624399       -1.19827530142452       -1.10038444323379
H            2.63296871738802        1.26446715319960        1.65239982278690
H           -2.13576632443863        0.68887169165504       -0.48406856248955
H           -1.16255898298532       -0.00197686847397       -1.80099020714267
H            0.43432952164705        3.12389395369682        0.11010926895660
H           -1.58771391011852       -3.25079605545239       -1.24778460830477
H           -0.33282351503333        0.70809270532426        1.67118652108203
21
 energy: -45.416583792341 gnorm: 0.005307291113 xtb: 6.6.0 (conda-forge)
C            0.95344621706851       -0.88179112111416       -0.06156743292068
C            1.87805618110406        0.28256011431223        0.18997398782246
O            2.43800789446937        0.92663577638726       -0.65363695902036
O            2.02835190381443        0.52704620494735        1.50010740111797
C           -0.53981560720782       -0.55326958446341        0.22045448682621
C           -1.11398721389767        0.44988940984086       -0.81432020810067
C           -0.36893447478591        1.75631096806473       -0.93849062006815
O           -0.11878633563075        2.30252384322194       -1.97413570787974
O           -0.04300018038490        2.28946870003414        0.25532266736709
C           -1.34093366082406       -1.85458838610829        0.03195100784779
O           -2.13354373577722       -2.29952082455661        0.80486751084486
O           -1.05862166260102       -2.43557628819171       -1.14183890443626
O           -0.76196836695878       -0.14913445437464        1.53183181437632
H            1.24217507543485       -1.68617347529944        0.61657938565769
H            1.06114543766609       -1.19984426552952       -1.09648751377809
H            2.64321196865247        1.26249368117017        1.64776299459659
H           -2.13481169537016        0.68647065940604       -0.49699811515283
H           -1.14788798871300       -0.00675540373342       -1.80409936129593
H            0.42300712350113        3.12843256374603        0.11315041501442
H           -1.58292275761994       -3.24527610117936       -1.24819962763444
H           -0.32218812193981        0.70009798341992        1.67777277881552
21
 energy: -45.416633095052 gnorm: 0.006117276624 xtb: 6.6.0 (conda-forge)
C            0.95013722384709       -0.88384741229137       -0.05292928910651
C            1.87458449573168        0.28289572972769        0.18963970766669
O            2.43566076541534        0.91971933722508       -0.65965379345581
O            2.02915499638036        0.53428972854834        1.49788772339845
C           -0.54259792879514       -0.55226098507927        0.22155699507029
C           -1.10938955430783        0.44910868760090       -0.81829960207574
C           -0.37251005819692        1.76067309950155       -0.93903035411709
O           -0.14043938078052        2.31907243222338       -1.97301311937156
O           -0.03431176167151        2.28554210721374        0.25552029141235
C           -1.34283513610675       -1.85404330489035        0.02990751518809