17
 energy: -25.737941572457 gnorm: 0.095132056473 xtb: 6.6.0 (conda-forge)
C           -2.29680000000000        0.71590000000000        0.19980000000000
C           -2.40120000000000       -0.61120000000000       -0.23040000000000
C           -1.24860000000000       -1.36950000000000       -0.45950000000000
C            0.01440000000000       -0.80110000000000       -0.25860000000000
C            0.12230000000000        0.53990000000000        0.17610000000000
C           -1.03910000000000        1.29330000000000        0.40350000000000
C            1.39650000000000        1.08840000000000        0.37080000000000
C            2.53070000000000        0.30840000000000        0.13430000000000
C            2.38040000000000       -1.01300000000000       -0.29460000000000
N            1.13840000000000       -1.53510000000000       -0.48030000000000
H           -3.19230000000000        1.29780000000000        0.37550000000000
H           -3.37720000000000       -1.05240000000000       -0.38630000000000
H           -1.33940000000000       -2.39610000000000       -0.79240000000000
H           -0.97430000000000        2.32220000000000        0.73680000000000
H            1.51420000000000        2.11280000000000        0.70330000000000
H            3.51890000000000        0.72430000000000        0.28220000000000
H            3.25330000000000       -1.62460000000000       -0.48020000000000
17
 energy: -25.744769008376 gnorm: 0.036640844506 xtb: 6.6.0 (conda-forge)
C           -2.27855754966926        0.71211478467050        0.19880265441919
C           -2.37018814173038       -0.61590456940572       -0.23146450551390
C           -1.23518767214924       -1.36475443765152       -0.45780502821240
C            0.03306895411614       -0.79694308533311       -0.25699038322322
C            0.12607331580613        0.55435178154630        0.18081210733943
C           -1.04814006083452        1.29415914841327        0.40369575496324
C            1.40541186750218        1.09742915232835        0.37378979712355
C            2.51160884865764        0.31330918930103        0.13564496604113
C            2.33028966274350       -1.00689463438454       -0.29332058356368
N            1.13680380936387       -1.54001900884342       -0.48190263570212
H           -3.17824159169867        1.28537455312776        0.37165750322880
H           -3.34339057605476       -1.05866359483128       -0.38784654111428
H           -1.31673601683566       -2.38870493332763       -0.78970709279940
H           -0.98553629462993        2.32060966694929        0.73613611681601
H            1.52199881315554        2.11943479834302        0.70555392918947
H            3.50594844451336        0.71325653910050        0.27847013463091
H            3.18497418774404       -1.63815535000279       -0.48552619362273
17
 energy: -25.745684757612 gnorm: 0.007244887177 xtb: 6.6.0 (conda-forge)
C           -2.27508655640369        0.71064499520802        0.19837482214239
C           -2.36041268101720       -0.62081781969880       -0.23291691400069
C           -1.23152693381855       -1.35957331150106       -0.45608670213957
C            0.04110015367079       -0.78964492392134       -0.25452176050700
C            0.12728658460079        0.56443087305484        0.18408387247692
C           -1.05650461057147        1.29470718421806        0.40376134371938
C            1.41421581148300        1.10316237358115        0.37576363031202
C            2.50859700846449        0.31707744019937        0.13682238527140
C            2.30628772131715       -1.00517487076948       -0.29309506692557
N            1.13627053842333       -1.53869195976142       -0.48148047374388
H           -3.17983913854948        1.27599675785538        0.36860160539548
H           -3.33295569192349       -1.06435463172618       -0.38953670150483
H           -1.29481148905505       -2.38385754692291       -0.78784215721015
H           -0.98777032011148        2.32052334173677        0.73608550820420
H            1.52440201124905        2.12603862960728        0.70770693737584
H            3.50901201437234        0.70080511804860        0.27449702894046
H            3.15193557786949       -1.65127164920828       -0.49021735780642
17
 energy: -25.745745640832 gnorm: 0.003437657147 xtb: 6.6.0 (conda-forge)
C           -2.27673817738674        0.71095154469716        0.19844995140367
C           -2.36299433925966       -0.62162527825002       -0.23321139803748
C           -1.23329687458550       -1.35884116168112       -0.45587380682995
C            0.03947969283923       -0.78764790737881       -0.25390080272867
C            0.12705274715696        0.56510847836570        0.18429831209962
C           -1.05760549227812        1.29476857714331        0.40376727029750
C            1.41587815397291        1.10326796235735        0.37581665050695
C            2.51070665082883        0.31781576248667        0.13709187506640
C            2.30710506739075       -1.00548389205812       -0.29318222929742
N            1.13472233324688       -1.53868707754948       -0.48150201176523
H           -3.18258290018720        1.27459878765837        0.36811054995239
H           -3.33612278668661       -1.06402162717527       -0.38946983576942
H           -1.28864508017077       -2.38382185638773       -0.78774663255880
H           -0.98551491002165        2.32080106673810        0.73620734065930
H            1.52291148218322        2.12697206614688        0.70798788242768
H            3.51221356916394        0.69756617392673        0.27349759249132
H            3.15363086379353       -1.65172161903971       -0.49034070791786
17
 energy: -25.745765457338 gnorm: 0.000818249098 xtb: 6.6.0 (conda-forge)
C           -2.27737640285367        0.71125907402417        0.19854143874430
C           -2.36474335806781       -0.62244010845375       -0.23349917136036
C           -1.23459682419720       -1.35831125119515       -0.45572124247641
C            0.03820985165569       -0.78541527088391       -0.25319898877364
C            0.12699374380734        0.56567243390627        0.18447882749258
C           -1.05836443203321        1.29485672368793        0.40378355854051
C            1.41701777766172        1.10348221403696        0.37590265055425
C            2.51146689288343        0.31833066858452        0.13726945990416
C            2.30675284238715       -1.00584733372201       -0.29330561660820
N            1.13326795950023       -1.53851557421226       -0.48146932823371
H           -3.18439348848759        1.27306528267690        0.36759207149673
H           -3.33877401366042       -1.06294635785076       -0.38915672298402
H           -1.28092138328955       -2.38386646199204       -0.78765480430593
H           -0.98323814301212        2.32104158527475        0.73631660237233
H            1.52046548776078        2.12793538715636        0.70826284342513
H            3.51441370236336        0.69336146110855        0.27217217654862
H            3.15401978758188       -1.65166247214654       -0.49031375433635
17
 energy: -25.745766288659 gnorm: 0.000218166282 xtb: 6.6.0 (conda-forge)
C           -2.27692755526391        0.71124878719440        0.19854462254932
C           -2.36462970539482       -0.62253377661937       -0.23352736864892
C           -1.23467071886954       -1.35855044402278       -0.45579953268631
C            0.03800753911447       -0.78515083232737       -0.25311702481971
C            0.12714563055677        0.56550411670015        0.18442550004796
C           -1.05813086698797        1.29497335985385        0.40382452698749
C            1.41684913355966        1.10363854243759        0.37594935229536
C            2.51095597916690        0.31826153923948        0.13724056722132
C            2.30642941925079       -1.00598532814904       -0.29335175639600
N            1.13300971859173       -1.53853256289184       -0.48147795214992
H           -3.18413580030423        1.27279714169890        0.36750982258685
H           -3.33902663882519       -1.06223097015977       -0.38892927950937
H           -1.27958525970277       -2.38398242465451       -0.78767463153109
H           -0.98319191723808        2.32112894582212        0.73634474625985
H            1.51983818089573        2.12805988835904        0.70829524889612
H            3.51428688822572        0.69246188475024        0.27187966482313
H            3.15397597322472       -1.65110786723110       -0.49013650592606
