30
 energy: -55.739593440589 gnorm: 0.142785847834 xtb: 6.6.0 (conda-forge)
C           -2.51450000000000       -2.54260000000000       -0.31550000000000
C           -1.18560000000000       -2.74750000000000       -0.68170000000000
C           -0.26760000000000       -1.69980000000000       -0.60010000000000
C           -0.66590000000000       -0.42920000000000       -0.14070000000000
C           -2.01650000000000       -0.22530000000000        0.24080000000000
C           -2.92970000000000       -1.29020000000000        0.13840000000000
C           -2.51380000000000        1.10870000000000        0.74430000000000
C           -2.96770000000000        1.96470000000000       -0.39610000000000
O           -4.02990000000000        1.68230000000000       -1.01280000000000
O           -2.21220000000000        3.06680000000000       -0.78380000000000
N            0.28750000000000        0.65040000000000       -0.09050000000000
C            1.70390000000000        0.44570000000000        0.03740000000000
C            2.57820000000000        0.98160000000000       -0.92800000000000
C            3.95860000000000        0.78630000000000       -0.80960000000000
C            4.47720000000000        0.07030000000000        0.27040000000000
C            3.62000000000000       -0.44810000000000        1.24250000000000
C            2.23710000000000       -0.26090000000000        1.13700000000000
Cl           1.20810000000000       -0.86770000000000        2.42920000000000
Cl           1.96300000000000        1.86940000000000       -2.31610000000000
H           -3.22580000000000       -3.35540000000000       -0.38590000000000
H           -0.86720000000000       -3.71870000000000       -1.03800000000000
H            0.75360000000000       -1.87870000000000       -0.91100000000000
H           -3.96770000000000       -1.15050000000000        0.41460000000000
H           -3.36480000000000        0.96240000000000        1.44470000000000
H           -1.72450000000000        1.63040000000000        1.32580000000000
H           -2.50440000000000        3.65050000000000       -1.55840000000000
H           -0.03970000000000        1.62160000000000       -0.28640000000000
H            4.63120000000000        1.18810000000000       -1.55670000000000
H            5.54590000000000       -0.07680000000000        0.35820000000000
H            4.03330000000000       -0.98750000000000        2.08530000000000
30
 energy: -55.759426645665 gnorm: 0.053372850569 xtb: 6.6.0 (conda-forge)
C           -2.50160960599276       -2.52399609846677       -0.31238728122172
C           -1.17912526917372       -2.72720700120877       -0.67191959866183
C           -0.26668438148365       -1.68756855134573       -0.58676055915790
C           -0.65845086986351       -0.42353669577472       -0.13504451216643
C           -2.00171283639600       -0.21690797745473        0.23273454224693
C           -2.90544008881362       -1.27513719675217        0.13343194828765
C           -2.49222759257244        1.12346286214491        0.73567048454940
C           -2.98113265181276        1.96002185897602       -0.41111405421974
O           -4.00245211731806        1.71005394183632       -1.01885681558896
O           -2.20083824128595        3.02090882913031       -0.75153894145196
N            0.28507527963114        0.62665484781173       -0.08135909067803
C            1.67998617052006        0.43323593754048        0.03121927807670
C            2.56764829847198        0.96587582998703       -0.91565977433646
C            3.94081467504339        0.78811422233326       -0.80099385234141
C            4.45672143425313        0.07342634260716        0.26854975916717
C            3.60467466223831       -0.44450485036774        1.23167640334477
C            2.23276124597530       -0.25736394448602        1.11998938232880
Cl           1.19952009439671       -0.86766895671400        2.38666367019326
Cl           1.94803767668407        1.85780267520682       -2.28181249292041
H           -3.21478841799769       -3.33414863853094       -0.38232194280945
H           -0.86096091980013       -3.69608879960585       -1.03137302463214
H            0.75484229284044       -1.85972627304798       -0.89452844333894
H           -3.94018339776831       -1.12764207788760        0.40976916446547
H           -3.34865398255772        0.96643207162179        1.40715806734895
H           -1.70839024968557        1.64033860647076        1.30592172163663
H           -2.51805642407475        3.57011417035783       -1.50637641674998
H           -0.03115594162956        1.56891877369047       -0.30512197218504
H            4.60708126283906        1.19155164399517       -1.55014705528305
H            5.52331292537065       -0.07357558839338        0.35555816906948
H            4.01148696996194       -0.98153996367366        2.07627323702826
30
 energy: -55.764404374179 gnorm: 0.016575012928 xtb: 6.6.0 (conda-forge)
C           -2.48960464886620       -2.50916342223372       -0.31137242971436
C           -1.16731961163550       -2.71503420540185       -0.66158431372675
C           -0.25757810240230       -1.68036771046513       -0.57101991928606
C           -0.64799902819467       -0.41748125035627       -0.12768227674253
C           -1.98624492229082       -0.21029055397270        0.23389775884117
C           -2.88610229853506       -1.26062883414197        0.13075789775182
C           -2.47307484672213        1.13280699902591        0.73418374952413
C           -2.98340443331711        1.95057801184746       -0.42764992416148
O           -3.99163585729507        1.73109347722351       -1.02714130419756
O           -2.17049618287949        2.97601605787735       -0.72737988524421
N            0.28160467647730        0.61605309209018       -0.07237795670235
C            1.65504510384884        0.42695368057698        0.02733380395560
C            2.55124735638442        0.96315825823621       -0.90600714555536
C            3.91982745045562        0.79213437924962       -0.79759505137032
C            4.43621153393339        0.07525104459405        0.26672743774047
C            3.58611027102829       -0.44999494719120        1.22326140942699
C            2.21989784860337       -0.26849955896290        1.10357200566935
Cl           1.17808114452327       -0.88602030286264        2.34203760369133
Cl           1.91801707270250        1.85594010380175       -2.25100637142929
H           -3.20543720152765       -3.31480352394296       -0.38117088853075
H           -0.84675380998893       -3.68213792231838       -1.02062449133519
H            0.76802867316527       -1.84359864157210       -0.86881270449190
H           -3.91898207897330       -1.10002108388705        0.40344071171144
H           -3.32463222555528        0.96870367464017        1.39718804163342
H           -1.68790040838644        1.65978242561878        1.27496023419891
H           -2.51378681264637        3.50052539944991       -1.46540220767098
H           -0.02720970188234        1.53689629658962       -0.34242393127272
H            4.57783368982295        1.20603087343601       -1.54594840042154
H            5.50187004170864       -0.06816596319951        0.35447669124855
H            3.98448730844481       -0.98541585374916        2.07066185646019
30
 energy: -55.765433928546 gnorm: 0.009825913999 xtb: 6.6.0 (conda-forge)
C           -2.48390425618508       -2.50704918658935       -0.30935836359113
C           -1.15811437905849       -2.71540122354294       -0.64819801737381
C           -0.24962176385039       -1.68096070293096       -0.55426464179066
C           -0.64622553564432       -0.41662160741392       -0.12022719841083
C           -1.98367561265578       -0.21016137787638        0.23800642906541
C           -2.88319275591268       -1.25813083632634        0.12938447813108
C           -2.46650201708131        1.13124546606919        0.74053249480132
C           -2.97426096098561        1.95109172362451       -0.42317590904730
O           -3.98682495852529        1.74803184423816       -1.03032272328912
O           -2.13146885266065        2.95122891388657       -0.72893221444962
N            0.27539091173488        0.62142020898923       -0.06918308276286
C            1.64291601985152        0.43038364030904        0.02679797089744
C            2.53766795683190        0.97367827082225       -0.90287160231449
C            3.90556472336792        0.80481434637197       -0.79528231000254
C            4.42209162162119        0.07953936054741        0.26436049608585
C            3.57214426366926       -0.45836641237803        1.21526336520591
C            2.20655028740844       -0.27884211600197        1.09557818174448
Cl           1.15762570026808       -0.92150557619976        2.31209033670144
Cl           1.89300194130856        1.87651547918924       -2.23323091883964
H           -3.20054462179765       -3.31026498061787       -0.38380580511801
H           -0.83331393679387       -3.68207558545311       -1.00310287275845
H            0.78000929068751       -1.83873546885287       -0.84230791989159
H           -3.91595949082854       -1.09097036954110        0.39706681806640
H           -3.31015716948222        0.97002884978805        1.41200084020384
H           -1.67346029556799        1.66608308724666        1.26101751960026
H           -2.47811714662534        3.46958078883577       -1.46970420986201
H           -0.03087203989018        1.53202705378808       -0.39018502471525
H            4.55950867362234        1.22675868315746       -1.54196032781566
H            5.48750448607412       -0.06179078571494        0.35209304877701
H            3.96633991709973       -1.00125148742412        2.05922116275259
30
 energy: -55.766362048907 gnorm: 0.016729692475 xtb: 6.6.0 (conda-forge)
C           -2.47912608803260       -2.50779403222121       -0.30443255601705
C           -1.14775919313063       -2.71944378540834       -0.62452209316279
C           -0.24186053500477       -1.68350469890471       -0.52978544934498
C           -0.64871403494847       -0.41679623514517       -0.10951818683700
C           -1.98506207870582       -0.21254235268114        0.24699094646896
C           -2.88533129139258       -1.25881044856325        0.12921618272994
C           -2.45677144790478        1.12862737409778        0.75186329248728
C           -2.94753171748066        1.94752077959749       -0.42101458356222
O           -3.97647426102272        1.78153901744129       -1.02056404265228
O           -2.06482932334669        2.90999614887727       -0.74907761494461
N            0.26273860762625        0.63362066484955       -0.06184415108623
C            1.62485741202124        0.43862006518486        0.02663095048074
C            2.51721887011291        1.00451820150197       -0.89263208783789
C            3.88453429768850        0.83426911400421       -0.78789942024054
C            4.40044979993509        0.08881646597455        0.25959662447313
C            3.55080406487572       -0.47492884170801        1.19797092021988
C            2.18488176086132       -0.30136448830769        1.07960032209728
Cl           1.13147759551551       -0.98215385591249        2.26941013956499
Cl           1.85899221001910        1.92635877494940       -2.20234709460618
H           -3.19596082651705       -3.30882255184468       -0.38781727760325
H           -0.81503034649052       -3.68768788756965       -0.96670641706845
H            0.79381857757076       -1.83489852226103       -0.80106261420230
H           -3.91896082112635       -1.08396907270636        0.38706077175400
H           -3.28865972537635        0.97931836108590        1.43972429908847
H           -1.64886357427091        1.66941256143150        1.24428275030442
H           -2.41153008234091        3.42381757359576       -1.49566336107245
H           -0.03736973441808        1.52174610936848       -0.46942549085030
H            4.53409931456109        1.27048191850775       -1.52978963191169
H            5.46573121524374       -0.04970463909872        0.34699831195899
H            3.94033135547873       -1.03594171813540        2.03205656137223
30
 energy: -55.766895312242 gnorm: 0.014362313936 xtb: 6.6.0 (conda-forge)
C           -2.48054875416933       -2.50907751031420       -0.29770523818458
C           -1.14710012438217       -2.72318844124724       -0.60853131118991
C           -0.24273237767504       -1.68560322449691       -0.51929586804637
C           -0.65407267573737       -0.41780764255014       -0.10620361443830
C           -1.98904479539494       -0.21358827117050        0.25257958461396
C           -2.89075528877621       -1.25954843222492        0.13144747573423
C           -2.45032930908311        1.12961840720591        0.75974006605279
C           -2.93250435128019        1.95065039663065       -0.41439452559513
O           -3.96387112982620        1.79921390521064       -1.01263660365283
O           -2.01798632598632        2.87670932617284       -0.77532314746084
N            0.25301933457699        0.64134523192017       -0.05821164847507
C            1.61374075307807        0.44428825844238        0.02562640536426
C            2.50482133208332        1.03157967700183       -0.88254215581722
C            3.87226694401939        0.86117556700601       -0.77960604064370
C            4.38792670022009        0.09663163240815        0.25476109837468
C            3.53876584702836       -0.48751772079027        1.18168874920797
C            2.17240385833163       -0.31615975782985        1.06662012774895
Cl           1.12205277094083       -1.02364384047977        2.24343738211699
Cl           1.84304915837470        1.97729976898959       -2.17503990006734
H           -3.19676501885029       -3.31029632399173       -0.38429141634152
H           -0.81028621241439       -3.69453442510021       -0.93817061450902
H            0.79506748579772       -1.83596953075605       -0.78227877228074
H           -3.92493152273614       -1.08228793878663        0.38474185138390
H           -3.27784940096627        0.98945309207229        1.45458774637554
H           -1.63329621814421        1.66458626913349        1.24313286239659
H           -2.35015797437441        3.38085614375911       -1.53625683269723
H           -0.04212252006163        1.51014216684068       -0.50312477945257
H            4.52085893641357        1.31256604854323       -1.51367934526147
H            5.45332526752444       -0.04049577507015        0.34144948385289
H            3.92715561146921       -1.06609705652855        2.00477898089128
30
 energy: -55.767519905222 gnorm: 0.010440009455 xtb: 6.6.0 (conda-forge)
C           -2.48778111905731       -2.51185080310667       -0.28575675302872
C           -1.15433880110061       -2.72884068519775       -0.59227943171930
C           -0.24964985522890       -1.69051544858434       -0.51185611045970
C           -0.66206889942831       -0.42275898129965       -0.10262401656609
C           -1.99550850343323       -0.21626506194797        0.25936475707535
C           -2.90020156626897       -1.26127841244752        0.13812432916936
C           -2.44244678677562        1.13266658376017        0.76485992031508
C           -2.90496992201546        1.94422003265743       -0.42159225272812
O           -3.95326921056112        1.82413859198499       -0.99698782078106
O           -1.96575865694583        2.83432976493021       -0.81261364549560
N            0.24161117151974        0.64576807344257       -0.05554404076742
C            1.60331370727239        0.44984049993936        0.02566274202811
C            2.49309661472437        1.06426342789633       -0.86674155039323
C            3.86127459997499        0.89667983733508       -0.76594892423621
C            4.37809041117498        0.10693780242808        0.24858650122915
C            3.53037460870846       -0.50088743529778        1.16066765477580
C            2.16343772477894       -0.32877183729485        1.05261561751346
Cl           1.12291269829840       -1.06222270468862        2.22199920104214
Cl           1.83307945414911        2.04551523525269       -2.13725357575307
H           -3.20314223520218       -3.31442429569628       -0.37261918667026
H           -0.81670037487889       -3.70412185147693       -0.90971903567150
H            0.78682556331181       -1.84238056139232       -0.77520318704286
H           -3.93504935577138       -1.08348350653903        0.38792037372665
H           -3.27295205052767        1.00832967485545        1.45947421683632
H           -1.61703357651782        1.65255867371202        1.24915738338464
H           -2.27887781876181        3.33358164790027       -1.58509133587570
H           -0.04858551639844        1.48986239805105       -0.53349707108378
H            4.51020797607734        1.37058944900152       -1.48656795522785
H            5.44382111353539       -0.02960365962223        0.33289518848043
H            3.92038860534778       -1.10157644855549        1.96786800792426
30
 energy: -55.768000639679 gnorm: 0.008554200705 xtb: 6.6.0 (conda-forge)
C           -2.50002465992557       -2.51347422544572       -0.27038967520366
C           -1.16894050376171       -2.73348711090400       -0.58064197597545
C           -0.26088732962305       -1.69665970914149       -0.50751503303967
C           -0.66952146147250       -0.42969876108838       -0.09713724264991
C           -2.00233588974383       -0.21796253734267        0.26556739257236
C           -2.91026097437709       -1.26116655889517        0.14963061365554
C           -2.43858038343204        1.13753035830394        0.76713289745216
C           -2.88467666266346        1.94406135325703       -0.42601823351648
O           -3.93691040777152        1.84411988787189       -0.98848351466820
O           -1.91883194370171        2.78948213687804       -0.85042651052724
N            0.23259002736897        0.64434400812152       -0.05130734482732
C            1.59623820397769        0.45371394644696        0.03008190649387
C            2.48440279909757        1.09627210082720       -0.84434531529922
C            3.85359547715201        0.93507981293674       -0.74795769359751
C            4.37499224412346        0.11814420489454        0.24198071333154
C            3.53042349799475       -0.51376548475065        1.13883869564004
C            2.16261833552851       -0.33918719023584        1.04097506920947
Cl           1.13534785345785       -1.09356909126845        2.20839513942220
Cl           1.82762681101604        2.11316398331358       -2.09195709058167
H           -3.21535686077375       -3.31741659082693       -0.35276112379588
H           -0.83588707439626       -3.71133012624412       -0.89416905392272
H            0.77177025956706       -1.85304511146708       -0.78003167875404
H           -3.94521124970976       -1.08418705535332        0.39971953681650
H           -3.27977847374604        1.02430091861969        1.45054123913506
H           -1.61027398129971        1.63945316113958        1.26381509381688
H           -2.20811840265109        3.28059649425805       -1.63680236690070
H           -0.05255367536049        1.46482759655984       -0.57494803221072
H            4.50200794848004        1.43465720979716       -1.45264592219053
H            5.44125892108073       -0.01932041711346        0.32008568706768
H            3.92537755556511       -1.13517720314875        1.92807382304794
30
 energy: -55.768322596719 gnorm: 0.011071936724 xtb: 6.6.0 (conda-forge)
C           -2.51279030836280       -2.51619496173253       -0.25311496925657
C           -1.18524097925422       -2.73890405660437       -0.57434255807134
C           -0.27303084600534       -1.70411407560203       -0.50879268868292
C           -0.67482770514660       -0.43732906942908       -0.09502916612031
C           -2.00668044718042       -0.22094286946078        0.27114140335531
C           -2.91750080531632       -1.26144933242534        0.16505808647408
C           -2.43845926092982        1.14071458715620        0.76195784620808
C           -2.86561126969564        1.94136526336411       -0.44090031633063
O           -3.93540445134097        1.87658978997302       -0.98076383971803
O           -1.87536841689130        2.74550891271861       -0.88709749650366
N            0.22870623362941        0.63734927913844       -0.05046685864341
C            1.59298718943270        0.45331149601577        0.03358274437961
C            2.47967161736677        1.12325708364488       -0.82215642981698
C            3.84961541822526        0.97015629008757       -0.73007235325636
C            4.37728946035398        0.13135876014353        0.23767381877979
C            3.53597544051020       -0.52225331474636        1.12126554130632
C            2.16676303029269       -0.35111058663702        1.02963059714526
Cl           1.14865066976849       -1.12205226297057        2.19548971324843
Cl           1.82253384312257        2.16300984220429       -2.05149841370880
H           -3.22942939243798       -3.32019401800166       -0.32695853304173
H           -0.85920617727385       -3.71781326309774       -0.89106104353940
H            0.75680993503820       -1.86709700357862       -0.78963814264106
H           -3.95171096500510       -1.08393954280320        0.41861743469803
H           -3.29215171698521        1.03852700925386        1.43212637338129
H           -1.60999718109523        1.63240826893478        1.26963230370914
H           -2.15532192652478        3.23987233104261       -1.67232380459973
H           -0.05252174361676        1.44257840426434       -0.58849874038981
H            4.49582867552648        1.49122217278125       -1.42079887812366
H            5.44418246644780       -0.00614467985275        0.30869561781010
H            3.93633961334803       -1.15739045378155        1.89594275194939
30
 energy: -55.768584820548 gnorm: 0.007739804681 xtb: 6.6.0 (conda-forge)
C           -2.52504305128471       -2.51720977269892       -0.23630493313067
C           -1.20120732461903       -2.74296488208114       -0.57123358082429
C           -0.28396415411361       -1.71169413254586       -0.50833844786382
C           -0.67712891654927       -0.44387937858980       -0.09033699609303
C           -2.00833261193617       -0.22182490017584        0.27736939247679
C           -2.92198084278388       -1.25949253724464        0.18180395706172
C           -2.44114959020380        1.14393374167344        0.75670702488897
C           -2.85058364161810        1.94181541379081       -0.45481103020169
O           -3.92458143460360        1.90089108575026       -0.98595421646188
O           -1.84599763638268        2.71130662103712       -0.91450984026772
N            0.22909109728465        0.62823903104506       -0.04999951503791
C            1.59268155435528        0.45027181577589        0.03752395839798
C            2.47656567170577        1.14202559455831       -0.80309878707760
C            3.84721653421612        0.99896832381397       -0.71407932606681
C            4.38226439151641        0.14441363714201        0.23503180489032
C            3.54486987929861       -0.52918811663682        1.10733090514840
C            2.17448650018922       -0.36390916570957        1.02017955816594
Cl           1.16127155872880       -1.15748639438942        2.17893965915313
Cl           1.81420954605783        2.20090035424859       -2.01289586077581
H           -3.24460636217525       -3.31939323118217       -0.30057604767706
H           -0.88299910288087       -3.72155089998138       -0.89699085616803
H            0.74308241018732       -1.88057595718104       -0.79865216918534
H           -3.95429822980588       -1.08000223192855        0.44253669243089
H           -3.30653617479756        1.04615397729747        1.41244421822871
H           -1.61841859302440        1.63505644875966        1.27455559999578
H           -2.11991634154938        3.20395383799170       -1.70245779521159
H           -0.04866632933781        1.42576693242117       -0.60465452222338
H            4.48958266804412        1.54088508463360       -1.39153773097099
H            5.44996514793151        0.01048595172752        0.30009692774786
H            3.95022337815060       -1.17559625132178        1.86921195665162
30
 energy: -55.768830440559 gnorm: 0.009929418445 xtb: 6.6.0 (conda-forge)
C           -2.53914229533987       -2.51886961257909       -0.21658560139940
C           -1.21991753375259       -2.74792410894277       -0.56902241090845
C           -0.29803688999506       -1.72038970735497       -0.51019650126609
C           -0.68112996665993       -0.45072122799165       -0.08756169451136
C           -2.01090932132921       -0.22201724749021        0.28345744159658
C           -2.92689209688214       -1.25796317728623        0.20231174270376
C           -2.44655627544226        1.14678406615413        0.75102486111305
C           -2.83831702536811        1.94714081458184       -0.46649154015810
O           -3.91987466440091        1.94031374964490       -0.98737164771732
O           -1.80248738657036        2.66226745130861       -0.95441650810769
N            0.23064646838577        0.61554406684349       -0.05205932476155
C            1.59283938332544        0.44256156829786        0.03909039207480
C            2.47253535174693        1.16298814849972       -0.78295790428698
C            3.84417957638715        1.03348317464115       -0.69528532745821
C            4.38787676556066        0.16250231224597        0.23361046945689
C            3.55549775066852       -0.53799608900975        1.09093534036539
C            2.18381380683351       -0.38579255676001        1.00514515648608
Cl           1.17652496685235       -1.20690244380784        2.15407674249693
Cl           1.80093490567188        2.24419594641128       -1.96737809673662
H           -3.26260396920705       -3.31803024632219       -0.26898330821401
H           -0.90930567861144       -3.72604965553904       -0.90474181064250
H            0.72646083629095       -1.89478582036305       -0.80861360519355
H           -3.95588468685133       -1.07512052982551        0.47425816606879
H           -3.32047443122326        1.05351701594108        1.39499743629706
H           -1.62988632653010        1.64192827171367        1.27586960044474
H           -2.06970221318188        3.15324198766292       -1.74707647913132
H           -0.04408075986844        1.41249582713953       -0.60685085423147
H            4.48079863771787        1.60022687154143       -1.35716087944745
H            5.45683731398401        0.03876449040736        0.29540737240711
H            3.96635575778921       -1.19509333976303        1.83986877266145
30
 energy: -55.769008908110 gnorm: 0.012694243040 xtb: 6.6.0 (conda-forge)
C           -2.55164300747265       -2.51887747990262       -0.19956037440281
C           -1.23756317324688       -2.75163186461323       -0.57100099276217
C           -0.31143169097897       -1.72829302912898       -0.51632024297166
C           -0.68269584759298       -0.45571629185444       -0.08817412501985
C           -2.01007827997072       -0.21979873510224        0.28742359644565
C           -2.92841727392785       -1.25511779419572        0.22181128132256
C           -2.45253911095875        1.15056926019393        0.74211443858515
C           -2.83257024243559        1.95118207372568       -0.48161729726953
O           -3.91030362344464        1.96358372519146       -1.00371670072668
O           -1.79053394725080        2.63414309488341       -0.97831951561536
N            0.23809161419654        0.59917830366770       -0.05749546506320
C            1.59889121256344        0.42973074945373        0.03735347482214
C            2.47370087767758        1.17134927295237       -0.77079448952471
C            3.84622204205686        1.05521327117153       -0.68081951893717
C            4.39754414028730        0.17769511513178        0.23570209850056
C            3.57028555043119       -0.54367616097180        1.08061444144691
C            2.19773240059668       -0.40802008118649        0.99099809477917
Cl           1.19474250492043       -1.25257685724554        2.12962258083885
Cl           1.79164648586160        2.26504780264764       -1.93442885984819
H           -3.28030832876032       -3.31345360689064       -0.23989076759775
H           -0.93432190053462       -3.72874983403955       -0.91794935322972
H            0.71062856463698       -1.90687311808385       -0.82147946159180
H           -3.95315811868245       -1.06741944150691        0.50736834166255
H           -3.33293688860041        1.05716796062197        1.37577548214030
H           -1.64712121925422        1.65853737635890        1.27343691899032
H           -2.05539748140109        3.12017459463493       -1.77664378831160
H           -0.03869802711878        1.41388963679306       -0.57744137413645
H            4.47651770289773        1.63936044656324       -1.33079271234588
H            5.46781691521263        0.06841402577708        0.29938623509339
H            3.98599815029310       -1.20473241504681        1.82213805472762
30
 energy: -55.769186327436 gnorm: 0.012191375914 xtb: 6.6.0 (conda-forge)
C           -2.56287211653891       -2.51966326584768       -0.18353922893269
C           -1.25203529450936       -2.75705346339954       -0.56403631961602
C           -0.32300104410676       -1.73722628112275       -0.51423244810520
C           -0.68704139585177       -0.46172784451798       -0.08567662587694
C           -2.01211562371594       -0.21889053989410        0.29175736153226
C           -2.93292138888850       -1.25386409860452        0.23667685878006
C           -2.45328217798335        1.15400000756560        0.73721718151043
C           -2.81876781464143        1.95169936010063       -0.49541633895964
O           -3.90995454965810        2.00642757515908       -0.99981208630429
O           -1.75317736073825        2.58609194196985       -1.01533540181520
N            0.23943194059399        0.58602446257396       -0.05925954215558