19
 energy: -33.362812965188 gnorm: 0.122689798366 xtb: 6.6.0 (conda-forge)
C           -2.52720000000000       -1.40120000000000       -0.65800000000000
O           -2.07210000000000       -0.07380000000000       -0.41570000000000
C           -0.74470000000000        0.27170000000000       -0.11500000000000
C           -0.42920000000000        1.62550000000000        0.10290000000000
C            0.88400000000000        1.99870000000000        0.40390000000000
C            1.89080000000000        1.03590000000000        0.49090000000000
C            1.59650000000000       -0.31730000000000        0.27710000000000
C            0.27690000000000       -0.69600000000000       -0.02580000000000
C            2.67500000000000       -1.31890000000000        0.37370000000000
O            2.44540000000000       -2.54350000000000        0.18750000000000
O           -1.40870000000000        2.61540000000000        0.02450000000000
H           -2.35280000000000       -2.03430000000000        0.23750000000000
H           -2.00380000000000       -1.82970000000000       -1.53860000000000
H           -3.61590000000000       -1.37780000000000       -0.86920000000000
H            1.12480000000000        3.04090000000000        0.57130000000000
H            2.90130000000000        1.34830000000000        0.72540000000000
H            0.05070000000000       -1.74070000000000       -0.19060000000000
H            3.68460000000000       -1.00590000000000        0.60810000000000
H           -2.37550000000000        2.40280000000000       -0.19000000000000
19
 energy: -33.377590727263 gnorm: 0.048052563656 xtb: 6.6.0 (conda-forge)
C           -2.48563573850796       -1.37882812715867       -0.64724387743945
O           -2.07283019946497       -0.04404935280342       -0.41240646873752
C           -0.75165216552724        0.25552669261822       -0.11826838067410
C           -0.44185360256611        1.61113170936524        0.09877309831015
C            0.86574089920880        1.98386992502744        0.39863471084842
C            1.86695228949862        1.03232362166232        0.48575782046111
C            1.57596743574411       -0.31713795456080        0.27311047322576
C            0.26230796629418       -0.69516440802556       -0.02856237758067
C            2.63329118419510       -1.32719721617537        0.36449940727437
O            2.43759619636884       -2.52100129686816        0.18857439187441
O           -1.38306995317178        2.60135286436553        0.02792051037341
H           -2.32710754221259       -2.01764606567037        0.23197283030214
H           -1.98278210980990       -1.81580396301677       -1.52039159715083
H           -3.56021291192711       -1.33181488425804       -0.85295783310735
H            1.09493886470409        3.02607957674817        0.56372770785607
H            2.87602977226658        1.34232583668592        0.71974931706784
H            0.04893385982817       -1.73988103035382       -0.19085152341249
H            3.64393851201856       -0.98311624214854        0.60276066026373
H           -2.30045275693938        2.31913031456669       -0.18489886975499
19
 energy: -33.381506276803 gnorm: 0.012452955862 xtb: 6.6.0 (conda-forge)
C           -2.46172467285340       -1.35196176448994       -0.63944252854223
O           -2.07333023232008       -0.01658316911766       -0.40932984134078
C           -0.75693182835726        0.24659185488085       -0.12034853908105
C           -0.44932515968677        1.60446943149632        0.09652502457918
C            0.85682345937589        1.97545866031714        0.39591221479232
C            1.85478165475480        1.02911922029190        0.48300072113090
C            1.56071505980517       -0.31622158125999        0.27024461193773
C            0.24869747080786       -0.69360318920033       -0.03106644461631
C            2.59826496826894       -1.34105697557357        0.35613985179497
O            2.42633131820780       -2.52034536792181        0.18636308198180
O           -1.37509346833937        2.57982078177054        0.02698752220417
H           -2.29066662384105       -1.98271197048018        0.23542400407645
H           -1.94924405314968       -1.78258789675931       -1.50224744951926
H           -3.53015404227748       -1.30452057273880       -0.84391002332234
H            1.06978025751945        3.01979092572741        0.55806143525939
H            2.86457526519470        1.33174164975648        0.71628568039552
H            0.04814352159565       -1.74103298740984       -0.19113159747129
H            3.60751191206610       -0.95492935187655        0.59879786092874
H           -2.24905480677128        2.21866230258736       -0.18636558518791
19
 energy: -33.381998459591 gnorm: 0.010186745384 xtb: 6.6.0 (conda-forge)
C           -2.45764468405175       -1.33667294942167       -0.63688094999067
O           -2.07413316603113       -0.00126223065806       -0.40771236439688
C           -0.75652022986817        0.24897058245429       -0.11997580101292
C           -0.44650207093953        1.60666136603181        0.09734401284417
C            0.85975284467229        1.97603628084198        0.39656318142419
C            1.85548305137194        1.02652426098252        0.48282170824387
C            1.55665517781635       -0.31696678137915        0.26931656215642
C            0.24377739420791       -0.69418877967705       -0.03207270148857
C            2.59022410502115       -1.34501874490208        0.35381893162109
O            2.42348009823289       -2.52753105873666        0.18507267626327
O           -1.38723122365191        2.56557308578867        0.02296432216636
H           -2.27754809697438       -1.96173048653643        0.24136126457829
H           -1.93577006658843       -1.76138346682983       -1.49811002879857
H           -3.52580064315896       -1.29858113099112       -0.84237398760401
H            1.06656790872751        3.02156607952810        0.55764123403119
H            2.86671896658847        1.32343279456593        0.71571808388992
H            0.04739521221671       -1.74291585372693       -0.19149635572601
H            3.59663737896007       -0.94403596070888        0.59811432472417
H           -2.24544195655105        2.16162299337454       -0.19221411292529
19
 energy: -33.382154211976 gnorm: 0.005266918496 xtb: 6.6.0 (conda-forge)
C           -2.45806407891817       -1.32655665675647       -0.63579543650606
O           -2.07456847571514        0.00859961891775       -0.40668186764419
C           -0.75486195559500        0.25087592351863       -0.11947917125334
C           -0.44235431699872        1.60887621783959        0.09838262174655
C            0.86319467577493        1.97832739233975        0.39749170065863
C            1.85693215417050        1.02506180570928        0.48298309332758
C            1.55508594109096       -0.31732394351411        0.26909200907756
C            0.24132991616398       -0.69602331505635       -0.03281196450057
C            2.58832686348213       -1.34528803176564        0.35415370948158
O            2.42080803461915       -2.52861500336598        0.18414751916966
O           -1.39998314105708        2.55363817980074        0.01903911413025
H           -2.27295323215371       -1.94840798682643        0.24492447107889
H           -1.93076936641101       -1.74783093782521       -1.49667940563992
H           -3.52642888093400       -1.29611363623963       -0.84219828642500
H            1.06717628178844        3.02463176199445        0.55811046003786
H            2.86931716328362        1.31796904868757        0.71569172173118
H            0.04904580521747       -1.74568525786588       -0.19145953184076
H            3.59307585335561       -0.94031004178254        0.59730519656635
H           -2.24420924116394        2.12427486219048       -0.19631595319624
19
 energy: -33.382181609124 gnorm: 0.001756219639 xtb: 6.6.0 (conda-forge)
C           -2.45960412962832       -1.32449095865885       -0.63587345764823
O           -2.07382670303842        0.01010782483582       -0.40630253939684
C           -0.75339295579422        0.25102262566734       -0.11904031805475
C           -0.44054691026107        1.60974782182426        0.09891568705696
C            0.86395573934019        1.98032197685304        0.39790231879150
C            1.85699073504345        1.02546097678814        0.48292625848424
C            1.55538617012069       -0.31675516775552        0.26889007100944
C            0.24150574446672       -0.69704650206967       -0.03276474377709
C            2.59013588465313       -1.34387431895003        0.35278024431921
O            2.42001135274876       -2.52734255915919        0.18487197988004
O           -1.40456322874440        2.54966389640832        0.01778050233067
H           -2.27555932191320       -1.94675741191948        0.24482886976333
H           -1.93324460285367       -1.74605369071453       -1.49724225872489
H           -3.52801224921400       -1.29315542323725       -0.84220521009740
H            1.06879148043709        3.02648442557554        0.55866051760348
H            2.86968132939204        1.31762937795123        0.71548638143212
H            0.05124197291185       -1.74691106766723       -0.19123080524760
H            3.59396972466477       -0.94154958396067        0.59868021644771
H           -2.24282003233139        2.11359775818874       -0.19716371417190
19
 energy: -33.382175927514 gnorm: 0.002790698757 xtb: 6.6.0 (conda-forge)
C           -2.46222986109273       -1.32354058098406       -0.63623462331247
O           -2.07205636097030        0.00993188419196       -0.40616479052824
C           -0.75111713474064        0.25060210799980       -0.11909489034898
C           -0.43909236695721        1.61040638530464        0.09901012233327
C            0.86394792452350        1.98272097520066        0.39806533200619
C            1.85662766360976        1.02662777622408        0.48337892005104
C            1.55636497144941       -0.31572231414981        0.27030430014897
C            0.24303435160212       -0.69780779065441       -0.03300514522944
C            2.59163329100573       -1.34276489290142        0.35961160018956
O            2.42061565901223       -2.52481820269834        0.18278794476271
O           -1.40809298672145        2.54648094093884        0.01638733321494
H           -2.28136365957156       -1.94753711456989        0.24357519542233
H           -1.93920710651344       -1.74707347767368       -1.49833117012687
H           -3.53073213429229       -1.28699760047949       -0.84190586798187
H            1.07143211719635        3.02824112953817        0.55930803449128
H            2.86929509703700        1.31899827806976        0.71636741611415
H            0.05419150081897       -1.74778470393024       -0.19053340276531
H            3.59772539955155       -0.94343719416672        0.59467240235826
H           -2.24087636494703        2.10357439474020       -0.19829871079951
19
 energy: -33.382188817120 gnorm: 0.001142926730 xtb: 6.6.0 (conda-forge)
C           -2.46246576109814       -1.32392447124451       -0.63635942707303
O           -2.07184890799266        0.00935691769251       -0.40606760937758
C           -0.75109381870428        0.25029892579467       -0.11882103538829
C           -0.43950806364768        1.61013307002142        0.09906744171465
C            0.86358441131391        1.98250731584237        0.39803748998782
C            1.85662823410357        1.02682599016988        0.48315397392621
C            1.55682874496056       -0.31554407119579        0.26971687180935
C            0.24338601485980       -0.69769291862369       -0.03260983750888
C            2.59262339960288       -1.34228864724534        0.35571425212316
O            2.42080312856497       -2.52496744675074        0.18443399886197
O           -1.40744683644742        2.54693529503005        0.01677502307170
H           -2.28207705156759       -1.94834893714702        0.24315634011124
H           -1.93988732142096       -1.74777204622262       -1.49848348585930
H           -3.53096758816538       -1.28613108791171       -0.84194026550467
H            1.07155474004222        3.02788777873661        0.55933623717809
H            2.86922255790590        1.31968343832724        0.71592022633201
H            0.05416319492243       -1.74753920743688       -0.19064945653386
H            3.59758962353613       -0.94378688993900        0.59749888133821
H           -2.24098870076827        2.10446699210257       -0.19797961920878
19
 energy: -33.382177146829 gnorm: 0.002319771021 xtb: 6.6.0 (conda-forge)
C           -2.46280635736317       -1.32449226679928       -0.63653598792167
O           -2.07154790445325        0.00851080621872       -0.40590490957245
C           -0.75105553494409        0.24986488434260       -0.11842870278737
C           -0.44010571220811        1.60974520996311        0.09916623683045
C            0.86305882616749        1.98221436572878        0.39799999168277
C            1.85662808406998        1.02712490265929        0.48280258841321
C            1.55750608522701       -0.31527208636558        0.26882448284038
C            0.24390016542827       -0.69752052360634       -0.03205832515826
C            2.59409660090786       -1.34157161014186        0.34988393983838
O            2.42103686104088       -2.52517595263811        0.18689040772044
O           -1.40651636203847        2.54759786568262        0.01737598902598
H           -2.28313328506240       -1.94956273189392        0.24253635423244
H           -1.94088084232053       -1.74878880934742       -1.49870331023612
H           -3.53130483726498       -1.28486742438158       -0.84199987316855
H            1.07173824898853        3.02739072865672        0.55938193615503
H            2.86912198194772        1.32068220899237        0.71523195067931
H            0.05413801299219       -1.74718141769815       -0.19080795446417
H            3.59736513533478       -0.94434442739197        0.60175755918150
H           -2.24113916644973        2.10574627802003       -0.19751237329129
19
 energy: -33.382189163824 gnorm: 0.000784270581 xtb: 6.6.0 (conda-forge)
C           -2.46232799873126       -1.32425448198464       -0.63639064327874
O           -2.07199561627850        0.00902017386945       -0.40604521034182
C           -0.75145229968320        0.24997772920522       -0.11873934899208
C           -0.44026572559948        1.60958441383792        0.09899052976782
C            0.86320216886102        1.98162006610783        0.39793373940319
C            1.85675950456678        1.02667617443611        0.48299929463139
C            1.55711474055743       -0.31571481520883        0.26927347491125
C            0.24353663062021       -0.69750341546174       -0.03240068341799
C            2.59283570695859       -1.34236212728650        0.35312923634942
O            2.42143943664894       -2.52565526207758        0.18552316781057
O           -1.40625255977859        2.54772886536235        0.01722576969157
H           -2.28161481390405       -1.94863819045156        0.24313084635179
H           -1.93939224171385       -1.74797662773983       -1.49840606002658
H           -3.53079802122339       -1.28638109772339       -0.84199609226362
H            1.07113482797745        3.02700046704799        0.55917705721680
H            2.86920375375814        1.32009273364706        0.71562959850932
H            0.05340823324487       -1.74724117404460       -0.19082961226600
H            3.59708526327302       -0.94307461306160        0.59932084779487
H           -2.24152098955413        2.10720118152633       -0.19762591185116
19
 energy: -33.382190212308 gnorm: 0.000407241990 xtb: 6.6.0 (conda-forge)
C           -2.46253207163860       -1.32381881596712       -0.63635128118359
O           -2.07196904611393        0.00945214304291       -0.40607471649479
C           -0.75126454769815        0.25006202183320       -0.11890122398690
C           -0.43996174010438        1.60971692567388        0.09891573116970
C            0.86343516424409        1.98173907654070        0.39791915756188
C            1.85683483849687        1.02654688691957        0.48315801398298
C            1.55703442169480       -0.31587591240670        0.26970231611035
C            0.24350816806559       -0.69769051044058       -0.03259773860157
C            2.59252084614243       -1.34254467526770        0.35559046733310
O            2.42178945022790       -2.52548653677856        0.18459521832867
O           -1.40694284314235        2.54707915432088        0.01689898928508
H           -2.28171500815469       -1.94806425472711        0.24333111026065
H           -1.93949005970149       -1.74745649067434       -1.49842682071727
H           -3.53099758092495       -1.28636274944497       -0.84196971671083
H            1.07133783882101        3.02714806006543        0.55923148251237
H            2.86925669885098        1.31987588256409        0.71593753158342
H            0.05336475852270       -1.74747200891053       -0.19080055782525
H            3.59746236804445       -0.94263912079417        0.59767046809135
H           -2.24157165563228        2.10589092445112       -0.19792843069933
