24
 energy: -42.153814077791 gnorm: 0.000456488275 xtb: 6.6.0 (conda-forge)
C            3.27587571611959        0.61559125317589       -0.19034515373817
N            2.15778156861543       -0.28276809380920       -0.20379925520114
C            2.15784192525483       -1.61604533950412       -0.37112158420057
N            0.95602927643258       -2.15217698356729       -0.34272227758924
C            0.12202837032499       -1.10699207888074       -0.14650273855697
C            0.83829318693451        0.07781054996820       -0.05361334562372
C            0.21336749481511        1.34768575869515        0.16058382529274
O            0.76590453877117        2.42687332386774        0.25887467767923
N           -1.17441966873913        1.21011802778766        0.25542057653115
C           -1.92259671321629        0.04280020200304        0.15922221606689
O           -3.12991333399358        0.06023330567667        0.25381191707020
N           -1.23181508119257       -1.13452458449309       -0.03685435419454
C           -1.96164092784305       -2.37821059062971       -0.15437014480537
C           -1.95086979230029        2.42021801703274        0.47057421976241
H            4.19826627683765        0.04571610234029       -0.28449864478870
H            3.19484785082473        1.32535327078437       -1.01526385025188
H            3.28387152261490        1.18429332074672        0.74030179803511
H            3.05382151125149       -2.18689138772105       -0.51375125809749
H           -1.29911658562837       -3.18786443879733        0.14074253130492
H           -2.83739993788442       -2.33099839321528        0.49068434412013
H           -2.28914948712516       -2.53172358182862       -1.18413278029557
H           -2.64839426205136        2.26321794972878        1.29139613607992
H           -2.51822922256593        2.66613041165896       -0.42724566226647
H           -1.25428422625683        3.22225397898025        0.70250880766712
