21
 energy: -30.187023014951 gnorm: 0.086376434043 xtb: 6.6.0 (conda-forge)
C           -2.82530000000000        0.41470000000000       -0.41110000000000
C           -1.37800000000000        0.86710000000000       -0.59320000000000
C           -0.59420000000000       -0.20110000000000        0.08380000000000
N           -1.32610000000000       -1.13270000000000        0.59110000000000
C           -2.73940000000000       -0.89830000000000        0.36960000000000
C            0.88640000000000       -0.21970000000000        0.18190000000000
C            1.55080000000000       -1.27020000000000        0.84140000000000
N            2.90800000000000       -1.27980000000000        0.92680000000000
C            3.66610000000000       -0.29020000000000        0.38690000000000
C            3.05530000000000        0.77330000000000       -0.27710000000000
C            1.66370000000000        0.80850000000000       -0.37970000000000
H           -3.31130000000000        0.25170000000000       -1.39790000000000
H           -3.40300000000000        1.17290000000000        0.16170000000000
H           -1.11150000000000        0.91870000000000       -1.67090000000000
H           -1.20390000000000        1.84730000000000       -0.09890000000000
H           -3.17040000000000       -1.73780000000000       -0.21700000000000
H           -3.26230000000000       -0.81440000000000        1.34640000000000
H            0.99430000000000       -2.08330000000000        1.28890000000000
H            4.74370000000000       -0.32950000000000        0.47350000000000
H            3.65530000000000        1.56400000000000       -0.70890000000000
H            1.20170000000000        1.63890000000000       -0.89730000000000
21
 energy: -30.196419676659 gnorm: 0.028770884015 xtb: 6.6.0 (conda-forge)
C           -2.82587965405719        0.42886103206625       -0.41944685594637
C           -1.37007490549099        0.87627225004232       -0.59813399732806
C           -0.59065282759468       -0.21122594104399        0.09005304066632
N           -1.30262696745693       -1.14049752185649        0.59710383161476
C           -2.70573210638799       -0.89217568860625        0.36793170546478
C            0.87760328331757       -0.21458196177983        0.17833876269035
C            1.56437302926137       -1.24780687048739        0.82894168853167
N            2.88951166871469       -1.28131712882725        0.92663420911730
C            3.61326453211552       -0.30155833407827        0.39052214635443
C            3.02573037227878        0.76661467187900       -0.27490712554867
C            1.64460404215438        0.80992649337485       -0.38167427047360
H           -3.31873956422938        0.27248494806542       -1.38440606897337
H           -3.40816946788330        1.17082008067332        0.13643155217608
H           -1.09108429350971        0.94554984363030       -1.65637735951658
H           -1.18095646622678        1.84858700512345       -0.12755270225149
H           -3.12730512880922       -1.74477622141777       -0.18015200647570
H           -3.21658636334361       -0.84772828257674        1.33854081213390
H            1.01995953261275       -2.06311257723676        1.27848832922242
H            4.68783699662150       -0.36324936527240        0.49012545852036
H            3.63445383071450        1.55171558881615       -0.70284230326010
H            1.18037045719871        1.63729797951208       -0.89761884671843
21
 energy: -30.197415536172 gnorm: 0.007328459766 xtb: 6.6.0 (conda-forge)
C           -2.81701848513830        0.42849558605181       -0.41870410381824
C           -1.36352130825708        0.88677065015243       -0.60394092411450
C           -0.58788256367095       -0.21030629430039        0.08966562018960
N           -1.29209187904819       -1.13689820618618        0.59558583810535
C           -2.69123532092777       -0.89620830705219        0.37116420653956
C            0.86956289623733       -0.20527678770410        0.17238031205521
C            1.56038419585975       -1.23457695754037        0.82091954707351
N            2.87105903021643       -1.28305376881154        0.92658106605288
C            3.58329330139501       -0.30766490031489        0.39235163153196
C            3.01284928731700        0.76645008833733       -0.27557394641176
C            1.63514205678498        0.81750192904006       -0.38670008894639
H           -3.30960060560300        0.26592595821592       -1.37523844143845
H           -3.39859564816639        1.16009159302067        0.13856760230276
H           -1.07843372864870        0.95526653052220       -1.65485381047290
H           -1.16774942235315        1.85257226159438       -0.13566778600535
H           -3.10334037366560       -1.75190941016898       -0.17032600777817
H           -3.19225845153593       -0.85852727843419        1.34215398861942
H            1.01433023649038       -2.05020485858119        1.27053082193808
H            4.65681739042672       -0.38752955962854        0.50263688496931
H            3.62964875482339        1.54538281765345       -0.69937435607742
H            1.16854063746407        1.64379891413433       -0.90215805431445
21
 energy: -30.197482406697 gnorm: 0.003390312001 xtb: 6.6.0 (conda-forge)
C           -2.81794306308502        0.42752204157407       -0.41818077559031
C           -1.36572205550562        0.88839539762753       -0.60502468911940
C           -0.58553857960669       -0.20785523456515        0.08835950423657
N           -1.28753737520774       -1.13505635378610        0.59476502960117
C           -2.68623633936845       -0.89817522809192        0.37261684847661
C            0.86907790300283       -0.20068544289113        0.16962862497067
C            1.55510743395009       -1.23245220619210        0.81933710475471
N            2.86636763930726       -1.28499962715501        0.92745776005990
C            3.58103106151692       -0.30905894691822        0.39305590560788
C            3.01498041806364        0.76680570703846       -0.27565349556645
C            1.63704881038490        0.82121983772999       -0.38879005551067
H           -3.31054136249225        0.26221321826784       -1.37456104984011
H           -3.39967038855156        1.15765676212917        0.14140522233599
H           -1.08100016885021        0.95534960570811       -1.65612692018931
H           -1.17040825124352        1.85360167125855       -0.13535353710166
H           -3.09579835957253       -1.75491056282073       -0.16909072829729
H           -3.18480156162045       -0.86067215447871        1.34483550601473
H            1.00237902197213       -2.04582135968484        1.26725081513671
H            4.65417351557280       -0.39388728728813        0.50622991439993
H            3.63490770412480        1.54327189103969       -0.69781821942072
H            1.17002399720869        1.64763827149862       -0.90434276495894
21
 energy: -30.197511730083 gnorm: 0.001480083968 xtb: 6.6.0 (conda-forge)
C           -2.81951791649395        0.42507269778862       -0.41682655390809
C           -1.36976681691263        0.89104870052465       -0.60682765360266
C           -0.58297248867033       -0.20335787645309        0.08585188367044
N           -1.28254024562071       -1.13208413268366        0.59329652196471
C           -2.68139373551361       -0.90135467606307        0.37477920241084
C            0.86984907500771       -0.19403012136759        0.16574738331859
C            1.54991168405048       -1.22922475180351        0.81714038695986
N            2.86128745882315       -1.28708912860364        0.92839284542343
C            3.57975545236178       -0.31156487436024        0.39444735498096
C            3.01945390554265        0.76627212703742       -0.27508057952093
C            1.64157568385426        0.82600370148546       -0.39134985649130
H           -3.31353108416912        0.25649901886199       -1.37209162443355
H           -3.40272845345428        1.15257836934248        0.14495520912573
H           -1.08652173504213        0.95725906064079       -1.65844924450097
H           -1.17600732948935        1.85627748859018       -0.13639125023027
H           -3.08891326295937       -1.75905573837065       -0.16699077631328
H           -3.17797837820398       -0.86416051239588        1.34805177330595
H            0.98850656575006       -2.03886926674837        1.26232397689885
H            4.65202315966008       -0.40256849644484        0.51123770041426
H            3.64415770970779        1.53952594156133       -0.69505683893191
H            1.17525075177150        1.65292246946163       -0.90715986054065
21
 energy: -30.197517102235 gnorm: 0.000932222537 xtb: 6.6.0 (conda-forge)
C           -2.82096510378089        0.42371394223382       -0.41610830502821
C           -1.37248794496523        0.89213257566324       -0.60762476597520
C           -0.58247235138682       -0.20083313351619        0.08439238845259
N           -1.28043324232987       -1.13062816020851        0.59255735785526
C           -2.67956188023334       -0.90246716385750        0.37554177363564
C            0.87077502273294       -0.19113876799060        0.16408477749007
C            1.54886200377675       -1.22779650742244        0.81621420656926
N            2.85958770853218       -1.28773878250318        0.92867826698780
C            3.58005281599546       -0.31314149791161        0.39541910184114
C            3.02199158340833        0.76529390120282       -0.27434587804248
C            1.64429817892218        0.82770292591616       -0.39219724475621
H           -3.31596538928172        0.25404827679427       -1.37065995300647
H           -3.40515258157712        1.15001599647725        0.14620072303654
H           -1.09064085169924        0.95904814367178       -1.65962639230175
H           -1.18011574263206        1.85796338082615       -0.13774445955482
H           -3.08660747719289       -1.76077243775022       -0.16571997704958
H           -3.17565701283324       -0.86598483921563        1.34914179600483
H            0.98416551758211       -2.03548621001640        1.26008587802575
H            4.65178148976078       -0.40633189995337        0.51343675441057
H            3.64906035941525        1.53725837219819       -0.69343573284172
H            1.17938489778646        1.65524188536195       -0.90829031575299
21
 energy: -30.197518568098 gnorm: 0.000270061839 xtb: 6.6.0 (conda-forge)
C           -2.82152379915594        0.42296608165017       -0.41570042599101
C           -1.37346548767136        0.89270712706316       -0.60802422692877
C           -0.58278243010989       -0.19950602337267        0.08358422687351
N           -1.27965154408640       -1.12990381845709        0.59217257953654
C           -2.67909684525811       -0.90277239631810        0.37575004273519
C            0.87094698670629       -0.19008906695991        0.16349117071806
C            1.54855919024406       -1.22718578320696        0.81587514564313
N            2.85879041570154       -1.28791059805280        0.92873302252457
C            3.58028560817623       -0.31402669205823        0.39591637120088
C            3.02287720922324        0.76464077108984       -0.27392275141263
C            1.64522437616181        0.82809924393694       -0.39237250328482
H           -3.31702683695318        0.25305311869736       -1.36990435418948
H           -3.40619274185056        1.14881796754468        0.14661599997987
H           -1.09222993880198        0.96027408341448       -1.66018259611930
H           -1.18168349956420        1.85895624968386       -0.13868616398533
H           -3.08578531573310       -1.76162501594189       -0.16498363486639
H           -3.17481722926985       -0.86699729201642        1.34960737078500
H            0.98316690277937       -2.03435023243574        1.25933492977036
H            4.65187511672603       -0.40757195797216        0.51419402018339
H            3.65071950474097        1.53628520486987       -0.69275576292047
H            1.18171035799503        1.65623902884161       -0.90874246025227
