24
 energy: -42.131895961989 gnorm: 0.161491694285 xtb: 6.6.0 (conda-forge)
C            3.31540000000000       -0.02430000000000        0.21900000000000
N            2.04050000000000        0.66400000000000        0.04470000000000
C            1.84020000000000        2.00210000000000       -0.04150000000000
N            0.53400000000000        2.33740000000000       -0.20710000000000
C           -0.08360000000000        1.13870000000000       -0.22250000000000
C            0.81110000000000        0.13560000000000       -0.07420000000000
C            0.39100000000000       -1.18800000000000       -0.06850000000000
O            1.22260000000000       -2.12300000000000        0.09230000000000
N           -0.95000000000000       -1.44580000000000       -0.24220000000000
C           -1.85050000000000       -0.40020000000000       -0.36950000000000
O           -3.08290000000000       -0.64630000000000       -0.50240000000000
N           -1.41860000000000        0.90900000000000       -0.35200000000000
C           -2.36120000000000        2.02120000000000       -0.53270000000000
C           -1.43860000000000       -2.83490000000000       -0.22230000000000
H            3.29470000000000       -0.61960000000000        1.15580000000000
H            4.14720000000000        0.70920000000000        0.28210000000000
H            3.49900000000000       -0.69710000000000       -0.64470000000000
H            2.63600000000000        2.73360000000000        0.01530000000000
H           -3.30120000000000        1.83060000000000        0.02810000000000
H           -1.94220000000000        2.97590000000000       -0.14950000000000
H           -2.59600000000000        2.13780000000000       -1.61150000000000
H           -1.73280000000000       -3.11070000000000        0.81220000000000
H           -2.31230000000000       -2.96110000000000       -0.89680000000000
H           -0.66230000000000       -3.54410000000000       -0.58080000000000
24
 energy: -42.149132874525 gnorm: 0.068996205224 xtb: 6.6.0 (conda-forge)
C            3.30746036820080       -0.00791970486495        0.21690195236181
N            2.04914304422493        0.67807171573719        0.04391576052248
C            1.83862362819596        2.00844774583263       -0.04085722290862
N            0.55522125685183        2.33522274969819       -0.20127036004270
C           -0.08475602525095        1.14375124521479       -0.22228620529548
C            0.81702637029761        0.11496936120564       -0.07342518150550
C            0.40441684388445       -1.23745760288697       -0.06458785481855
O            1.19624796673956       -2.17655409304846        0.08527803192337
N           -0.95218835560857       -1.44194948758870       -0.23950432536670
C           -1.86519274030207       -0.40113684692136       -0.37126587350058
O           -3.06236783495046       -0.64066567797876       -0.50116069452330
N           -1.42199381882967        0.90596386039323       -0.35406918400638
C           -2.35962871928371        2.00295738154404       -0.53383075136533
C           -1.44623057563781       -2.81239122584621       -0.22214031806284
H            3.28141131586675       -0.60853896528260        1.13191167382527
H            4.12045019462198        0.72087494839973        0.27844193890705
H            3.48214256654498       -0.68392519684897       -0.62630105572336
H            2.62471908234626        2.73690041885896        0.01489685307223
H           -3.28369070506323        1.79451342551127        0.01487822592077
H           -1.90784455699773        2.92501105956190       -0.15452780621823
H           -2.59601570328815        2.12584356520802       -1.59594891134853
H           -1.73485722553857       -3.09354266100545        0.79579834707830
H           -2.31248983132705       -2.90574569664888       -0.88418834096029
H           -0.65010654569714       -3.48270031824426       -0.56535869796486
24
 energy: -42.153125400613 gnorm: 0.016424144787 xtb: 6.6.0 (conda-forge)
C            3.30169404462530        0.00454332695187        0.21497512488266
N            2.05450039148474        0.69061262043642        0.04255466815223
C            1.83182194791455        2.01401816722622       -0.03964335910019
N            0.56470792886003        2.32820505073452       -0.19861833466055
C           -0.08246195350343        1.14010065834398       -0.22338386673779
C            0.82277659109928        0.09840278730804       -0.07396039842183
C            0.42523798872398       -1.27528001977987       -0.06012103462319
O            1.17984487588001       -2.22258681783648        0.07957547734231
N           -0.94640826629361       -1.43030770412956       -0.23206240170005
C           -1.87785227462065       -0.40311494827509       -0.37183274763172
O           -3.05508702886884       -0.64214704648288       -0.50037796056928
N           -1.41734007162693        0.89850514473418       -0.35768012988387
C           -2.35288738639782        1.98704535643674       -0.53458641990275
C           -1.45285081006578       -2.78883583258759       -0.22135859943138
H            3.27211776120136       -0.59740582050658        1.12244721960784
H            4.10601570499002        0.73104989976860        0.27665752248376
H            3.47298630772500       -0.67125781584513       -0.62200168374829
H            2.61241128343762        2.74410809671573        0.01668822115245
H           -3.26745545599512        1.76499802238758        0.00971954865581
H           -1.88508849141893        2.89123272308870       -0.15630982853580
H           -2.59497247525835        2.11368837400789       -1.58929625643498
H           -1.74642452622943       -3.07643769246701        0.78726522883568
H           -2.31449788195952       -2.85711230001775       -0.87889706653198
H           -0.65128820370350       -3.44202423021254       -0.55845292319907
24
 energy: -42.153514513595 gnorm: 0.008051847572 xtb: 6.6.0 (conda-forge)
C            3.30513710200178        0.01056702099078        0.21507361090245
N            2.05738220992392        0.69444454893544        0.04189535194017
C            1.82845329973190        2.01639715125525       -0.03984157950240
N            0.56021847048053        2.32430841594231       -0.19923236771343
C           -0.08048645907867        1.13389040608769       -0.22490285888731
C            0.82690058956511        0.09338599392235       -0.07471823055547
C            0.43524076342405       -1.28458825075882       -0.05792156148655
O            1.17708079693316       -2.24088395075835        0.07630350278736
N           -0.94143952675182       -1.42486946964124       -0.22534180557493
C           -1.87913321547097       -0.40529359580928       -0.37045377426031
O           -3.05803727232661       -0.64709784360804       -0.49896642264239
N           -1.41292280031699        0.89304279144199       -0.36086462578574
C           -2.34938655228789        1.98134591670308       -0.53475710025190
C           -1.45874803797510       -2.78088186210593       -0.22142051359312
H            3.27529863597815       -0.59132042413493        1.12373691317340
H            4.10962909994709        0.73893986350895        0.27757732126776
H            3.47786308795501       -0.66455808685549       -0.62344501010426
H            2.60740280193636        2.74967120753351        0.01817060671257
H           -3.26270016659997        1.75363327167375        0.01145105024723
H           -1.88004922644416        2.88484013265521       -0.15626534374237
H           -2.59477512217964        2.10807893703755       -1.58993842784498
H           -1.76092109734443       -3.06896658214062        0.78586605591572
H           -2.32051021936212       -2.83447644589999       -0.88221244954589
H           -0.66199716173869       -3.43960914597517       -0.55849234145561
24
 energy: -42.153626977407 gnorm: 0.002965347244 xtb: 6.6.0 (conda-forge)
C            3.30970120821169        0.01608991512664        0.21567895175367
N            2.05953576525560        0.69668704266158        0.04159821858000
C            1.82545166320178        2.01756324467787       -0.03957658663333
N            0.55467197877053        2.32006789839822       -0.20051433327601
C           -0.07885510774097        1.12685160112375       -0.22679150111546
C            0.83061272389544        0.08923527148028       -0.07659726577938
C            0.44262483619769       -1.28983809677358       -0.05854208311963
O            1.17437277629608       -2.25295032152478        0.07152500772974
N           -0.93793089572959       -1.42164476785528       -0.21936938773493
C           -1.87833559799218       -0.40729511748344       -0.36890800323214
O           -3.05836359225423       -0.65042648415684       -0.49532287303006
N           -1.40951759239906        0.88867157955988       -0.36478656070173
C           -2.34658908076045        1.97846139496522       -0.53465498198412
C           -1.46461481063859       -2.77673687508602       -0.22140400437818
H            3.28171885034459       -0.58572347151275        1.12534396946455
H            4.11400719442063        0.74643703704204        0.27959651792867
H            3.48642665812359       -0.65740816698333       -0.62432633761399
H            2.60264561406855        2.75363145618776        0.02019311863709
H           -3.25923062819673        1.74811021559018        0.01318851137205
H           -1.87887931149399        2.88340781872501       -0.15639792802162
H           -2.59468830946682        2.10526003497248       -1.59004901822492
H           -1.77610153023107       -3.06349597962572        0.78431423355455
H           -2.32491749122355       -2.82041858195325       -0.88587284479373
H           -0.67424532065896       -3.44453664755592       -0.55702481938108
24
 energy: -42.153640459955 gnorm: 0.001762412009 xtb: 6.6.0 (conda-forge)
C            3.31141106196832        0.01804277244816        0.21593615406841
N            2.05985173882471        0.69652015559455        0.04149913088601
C            1.82464415847426        2.01709421723997       -0.03918188646094
N            0.55322713364803        2.31831105171137       -0.20062820886710
C           -0.07847147846122        1.12416257712045       -0.22757032420888
C            0.83158940863832        0.08765501198882       -0.07784578821992
C            0.44353346754865       -1.29069905012872       -0.06010667205084
O            1.17313625979111       -2.25533907862941        0.06772507492884
N           -0.93822326691785       -1.42185428187250       -0.21780238706169
C           -1.87828132426037       -0.40795351361117       -0.36803997239221
O           -3.05863813034296       -0.65055771459102       -0.49295786919955
N           -1.40913759508859        0.88787633028570       -0.36664833565820
C           -2.34573368664628        1.97851282414811       -0.53489061622093
C           -1.46664722542475       -2.77676022955393       -0.22086317688178
H            3.28449344366761       -0.58390236579944        1.12557320120593
H            4.11442568453171        0.74998789093605        0.28069281572220
H            3.49033255711907       -0.65438993039227       -0.62448541698661
H            2.60108872898737        2.75380010764672        0.02153994824774
H           -3.25797050466664        1.74831040554570        0.01374677449883
H           -1.87778636847202        2.88341037751495       -0.15624749307346
H           -2.59428306705627        2.10587481207094       -1.59010602468995
H           -1.78177538432112       -3.06188421020456        0.78411090108457
H           -2.32460869298425       -2.81962299198253       -0.88808946458932
H           -0.67667691855684       -3.44659516748592       -0.55406036408116
24
 energy: -42.153650839369 gnorm: 0.001628917370 xtb: 6.6.0 (conda-forge)
C            3.31436872744318        0.02163216327347        0.21615292295263
N            2.06011524395672        0.69555565280761        0.04115593923414
C            1.82328796358321        2.01574132551489       -0.03778219553691
N            0.55149159459125        2.31534784018641       -0.20011257518494
C           -0.07805627360025        1.11975667914520       -0.22909966844798
C            0.83306332047017        0.08468767437976       -0.08078930039419
C            0.44391215631208       -1.29213928468176       -0.06456543131915
O            1.17124824676542       -2.25890284818109        0.05774117858967
N           -0.93997166529796       -1.42325571328030       -0.21597586827845
C           -1.87879846461873       -0.40916953129063       -0.36625435910937
O           -3.05978129606771       -0.65028869451971       -0.48717493156479
N           -1.40905382926147        0.88701116914839       -0.37032795455393
C           -2.34404722852967        1.97921160500157       -0.53551046795145
C           -1.47017915277588       -2.77761578911297       -0.21913290105813
H            3.28941304694419       -0.58125385688983        1.12507684256816
H            4.11375284064706        0.75731949812313        0.28303243167097
H            3.49785019650299       -0.64844771054431       -0.62498135298666
H            2.59841257333605        2.75330794764682        0.02520551699770
H           -3.25565443550416        1.74974758991249        0.01418964073812
H           -1.87438761263222        2.88296817560040       -0.15588136845669
H           -2.59320588070342        2.10856631775969       -1.59007490035514
H           -1.79425916404661       -3.05843514186391        0.78389705257825
H           -2.32183503933349       -2.82170935948591       -0.89377923126907
H           -0.67818586818071       -3.44963570864940       -0.54370901886277
24
 energy: -42.153655834866 gnorm: 0.001032160373 xtb: 6.6.0 (conda-forge)
C            3.31444827316567        0.02187230172122        0.21583229843969
N            2.06007128219059        0.69530237322673        0.04089073760940
C            1.82318260029004        2.01560659732067       -0.03714028075693
N            0.55177982527387        2.31548104481313       -0.19943645147439
C           -0.07822869478401        1.12000200630001       -0.22935673998435
C            0.83304827791092        0.08455589031968       -0.08158729160358
C            0.44363026064930       -1.29244860599912       -0.06622213862129
O            1.17182196661603       -2.25887922296198        0.05461985760405
N           -0.94030651975035       -1.42365647341817       -0.21664956163718
C           -1.87913364530174       -0.40933261015337       -0.36582591627300
O           -3.06020839881583       -0.65040561371441       -0.48540980806011
N           -1.40917265354363        0.88701563616704       -0.37064911243267
C           -2.34377560440570        1.97930240397024       -0.53552669832039
C           -1.47036230501583       -2.77773185711973       -0.21852869876842
H            3.28944534930923       -0.58179933108980        1.12420792289249
H            4.11312622643251        0.75803636440866        0.28349857756421
H            3.49851547598574       -0.64761317244256       -0.62558983701445
H            2.59834252441748        2.75310278625622        0.02655212576090
H           -3.25556126680731        1.74983770122470        0.01382216701060
H           -1.87350718332386        2.88244242235023       -0.15559042635951
H           -2.59291039002413        2.10943803824448       -1.58998798484300
H           -1.79879753012171       -3.05635429058763        0.78371362847388
H           -2.31943157164676       -2.82395152247286       -0.89645868148167
H           -0.67651629870048       -3.44982286636338       -0.53787768772426
24
 energy: -42.153669603269 gnorm: 0.001734328600 xtb: 6.6.0 (conda-forge)
C            3.31541763943333        0.02317289345617        0.21411487596967
N            2.06018016621052        0.69453395934030        0.03946830123290
C            1.82257900361018        2.01522699252217       -0.03442967667445
N            0.55189766328917        2.31547837970731       -0.19676860719635
C           -0.07858300285756        1.12008542600254       -0.23077531469526
C            0.83345816767624        0.08389072656694       -0.08553010514878
C            0.44366996636172       -1.29373692899616       -0.07374868754956
O            1.17455874239276       -2.25929061019627        0.04075205421483
N           -0.94061415276921       -1.42481208625723       -0.21883939653799
C           -1.87977395461997       -0.41021809124146       -0.36363260366919
O           -3.06141848443521       -0.65152241351454       -0.47686197035333
N           -1.40911864964602        0.88628196789469       -0.37236213424233
C           -2.34276240966486        1.97919303463616       -0.53516759509092
C           -1.47210542939869       -2.77763277466197       -0.21589366048249
H            3.29019122671718       -0.58411420001267        1.12013947758530
H            4.11175200320697        0.76121275683012        0.28592378931892
H            3.50254470315113       -0.64304083305023       -0.62927258405456
H            2.59768649137609        2.75268564273739        0.03260405812775
H           -3.25519106530311        1.74919167363628        0.01299343644205
H           -1.87125694452057        2.88058826195352       -0.15336286449841
H           -2.59165665442742        2.11239492477424       -1.58943895480569
H           -1.82474778169519       -3.04373941681761        0.78221918384541
H           -2.30661593914180       -2.83290258663672       -0.91229107664520
H           -0.67059130494566       -3.45292669867298       -0.50853994509230
24
 energy: -42.153681344652 gnorm: 0.002329160961 xtb: 6.6.0 (conda-forge)
C            3.31587947064147        0.02352081788901        0.21213393202252
N            2.06038853393831        0.69433807082516        0.03817803743859
C            1.82243312230559        2.01523023821103       -0.03261907336044
N            0.55193943828930        2.31566114269304       -0.19473204198039
C           -0.07854141871964        1.12039198367703       -0.23166106982003
C            0.83382273391519        0.08384542252899       -0.08847202453466
C            0.44442857915712       -1.29431970090420       -0.07900515747865
O            1.17709150925562       -2.25896980154781        0.03191050468491
N           -0.93985612259178       -1.42522412789749       -0.22050117527399
C           -1.87961145172916       -0.41063325460863       -0.36205489205882
O           -3.06135019040819       -0.65267223061932       -0.47127727396175
N           -1.40890839735534        0.88576969526547       -0.37316886003809
C           -2.34266543478844        1.97884026863932       -0.53430497430972
C           -1.47341051509569       -2.77705349968955       -0.21402327270429
H            3.29007281902750       -0.58709421777983        1.11590972673220
H            4.11130758308006        0.76209291008496        0.28764175065391
H            3.50484371454884       -0.63952593531969       -0.63333400816593
H            2.59748873851499        2.75255227739215        0.03672894178733
H           -3.25536738680707        1.74755595617677        0.01287291752415
H           -1.87145029221848        2.87947654242677       -0.15055933922260
H           -2.59103029928129        2.11418353809183       -1.58845958434594
H           -1.84887390825157       -3.03109427780237        0.77922791630413
H           -2.29307793115235       -2.84082932133099       -0.92770815746556
H           -0.66605289427496       -3.45604249640164       -0.48142282242688
24
 energy: -42.153699324869 gnorm: 0.003470940792 xtb: 6.6.0 (conda-forge)
C            3.31662378363698        0.02363003707030        0.20816613231683
N            2.06089325086603        0.69429691762020        0.03576451704195
C            1.82243823808269        2.01540271112847       -0.03036523675564
N            0.55180024979304        2.31591183062412       -0.19168248728031
C           -0.07818127997696        1.12069300910468       -0.23266677967507
C            0.83457621772379        0.08393132192127       -0.09300959721025
C            0.44628801994430       -1.29493153579621       -0.08640403109853
O            1.18135484867284       -2.25848859410573        0.01930161011307
N           -0.93800324713557       -1.42566506623247       -0.22254572756405
C           -1.87876786451253       -0.41116393615196       -0.35962871202170
O           -3.06068317577704       -0.65485040652763       -0.46258034614083
N           -1.40850985446423        0.88509271128708       -0.37376322325942
C           -2.34309266573704        1.97808421895052       -0.53218390867681
C           -1.47554180059587       -2.77583865790372       -0.21104755229546
H            3.28931459165501       -0.59284090140424        1.10794824019718
H            4.11119214455707        0.76252475572359        0.29031642185005
H            3.50827421098897       -0.63378797739059       -0.64116609941896
H            2.59729394517220        2.75263879490430        0.04221705669469
H           -3.25632261939896        1.74385145501827        0.01290549606042
H           -1.87339089619971        2.87791607401317       -0.14461143904122
H           -2.58993481992447        2.11689935008791       -1.58626649099921
H           -1.89346294557951       -3.00811539412029        0.77195039624708
H           -2.26652133835219       -2.85399125435335       -0.95709582609464
H           -0.65813699343884       -3.46119946346770       -0.43225241298916
24
 energy: -42.153716580551 gnorm: 0.003861809674 xtb: 6.6.0 (conda-forge)
C            3.31665244880516        0.02283143990233        0.20489443121057
N            2.06136636645918        0.69473892933954        0.03380118149107
C            1.82281987356818        2.01591503538760       -0.02944266683612
N            0.55179798311600        2.31649498439199       -0.18972100645129
C           -0.07776081912055        1.12144481983703       -0.23277192281801
C            0.83505518460439        0.08460514648773       -0.09593044896771
C            0.44825553010414       -1.29486217748439       -0.09103785019576
O            1.18489055503958       -2.25742433128100        0.01210006837435
N           -0.93585836302891       -1.42545714274745       -0.22370866566406
C           -1.87767013032127       -0.41114442907010       -0.35722446014927
O           -3.05939222436463       -0.65660568825332       -0.45676186603352
N           -1.40819918147198        0.88491471432888       -0.37274979677989
C           -2.34405163546376        1.97735060087333       -0.53021212080857
C           -1.47664464278991       -2.77446035952537       -0.20936968718749
H            3.28738319850362       -0.59823744117208        1.10146477120332
H            4.11168802807818        0.76077556740364        0.29234380540444
H            3.50959910042795       -0.63025720278428       -0.64753746940831
H            2.59760200256674        2.75302811392647        0.04475820169229
H           -3.25801275374756        1.74022586316540        0.01240239619737
H           -1.87691976963199        2.87720065812053       -0.13931342233991
H           -2.58862722343210        2.11830235717751       -1.58454668310931
H           -1.92701734207980       -2.99007140581766        0.76338325350581
H           -2.24383205320167       -2.86495343560911       -0.97922336578049
H           -0.65362413261901       -3.46435461659723       -0.39429667654952
24
 energy: -42.153744766361 gnorm: 0.002618634245 xtb: 6.6.0 (conda-forge)
C            3.31583571480224        0.02063905357155        0.20166745502381
N            2.06192409701148        0.69589838888708        0.03192512789091
C            1.82378638302710        2.01691271697840       -0.03055285654731
N            0.55180626432992        2.31742539197545       -0.18901488030821
C           -0.07711915499125        1.12258313956464       -0.23155940201779
C            0.83529621684560        0.08604870118960       -0.09683503942251
C            0.45075749353920       -1.29381343135016       -0.09172265366661
O            1.18778448836701       -2.25570310888653        0.01188394299047
N           -0.93297058856113       -1.42440310684234       -0.22319085222876
C           -1.87590591525686       -0.41046600651947       -0.35476391838903
O           -3.05708406892846       -0.65818189691409       -0.45365017790616
N           -1.40799303850866        0.88536963721370       -0.36922771908911
C           -2.34599614761071        1.97649259518711       -0.52789964754465
C           -1.47653588228769       -2.77275254163220       -0.20906305486483
H            3.28356647221573       -0.60420729117780        1.09543439355145
H            4.11321596348820        0.75579199847714        0.29367005763732
H            3.50844708335945       -0.62894601771924       -0.65350375111867
H            2.59856322341571        2.75395007584647        0.04302306491457
H           -3.26123127421943        1.73571744255642        0.01090574731378
H           -1.88364768419824        2.87749073461376       -0.13320242300727
H           -2.58642253205959        2.11842560773562       -1.58303577743700
H           -1.95347721433145       -2.97521860908355        0.75058630216624
H           -2.22054266703488       -2.87396358368917       -0.99708664575963
H           -0.65255723241330       -3.46508988998238       -0.36348729218101
24
 energy: -42.153731398944 gnorm: 0.007171200577 xtb: 6.6.0 (conda-forge)
C            3.31665270130478        0.01933902248961        0.19335826626588
N            2.06317794733527        0.69694592002248        0.02738941965064
C            1.82447319882132        2.01771883649393       -0.03124412984889
N            0.55122282381610        2.31758145198451       -0.18633916593969
C           -0.07615606440374        1.12234517638737       -0.23041587650847
C            0.83658416806468        0.08650915680549       -0.10037486510744
C            0.45481775452326       -1.29355803638349       -0.09531210607401
O            1.19277577601328       -2.25512647167356        0.00394523766295
N           -0.92938983531931       -1.42429317541082       -0.22130067834488
C           -1.87342679750090       -0.41072916441636       -0.34985445304685
O           -3.05438670044692       -0.66182121761345       -0.44327124114516
N           -1.40772329708325        0.88539161187853       -0.36522430105147
C           -2.34797831935147        1.97519449001195       -0.52254924152675
C           -1.47890655688071       -2.77063733585038       -0.20641920567040
H            3.28062328672304       -0.61537143616128        1.08004794947804
H            4.11465664829514        0.75280043768477        0.29627074337673
H            3.51178855838740       -0.62065304653407       -0.66862529740789
H            2.59860773196597        2.75524332388676        0.04275887064343
H           -3.26548004848187        1.72718564463248        0.00912085254142
H           -1.89207752880792        2.87584047083098       -0.11849137470474
H           -2.58153110855578        2.12314615971302       -1.57845754450443
H           -2.03188693069482       -2.93821687253797        0.72493692921887
H           -2.16435317062562       -2.89495566188926       -1.04998752580343
H           -0.64258423709795       -3.46987928435125       -0.27866126215345
24
 energy: -42.153774338276 gnorm: 0.001679081339 xtb: 6.6.0 (conda-forge)
C            3.31674484878239        0.02060664756214        0.19758197126894
N            2.06254299043971        0.69629071718085        0.03008316980190
C            1.82392412413570        2.01699621734201       -0.03255058840967
N            0.55129601522320        2.31678744878850       -0.18913443466839
C           -0.07680167190822        1.12131976265380       -0.23013736382448
C            0.83594339999845        0.08553061972002       -0.09624704781063
C            0.45200364120038       -1.29370654640611       -0.08892801025521
O            1.18790568177007       -2.25660414565351        0.01397706510860
N           -0.93251555285513       -1.42465973988246       -0.21952739362989
C           -1.87505675535859       -0.41081584243629       -0.35279314141682
O           -3.05624927568397       -0.65940294870805       -0.45141731820890
N           -1.40819051486832        0.88563674615663       -0.36640203947207
C           -2.34653403115417        1.97624449414164       -0.52507749141939
C           -1.47756559891592       -2.77263076453748       -0.20878398216781
H            3.28355064192135       -0.60817136420581        1.08842753815627
H            4.11386641328756        0.75556288480644        0.29344908529452
H            3.51024394166767       -0.62498765280915       -0.66039400030686
H            2.59818002189881        2.75471048694492        0.03909657011554
H           -3.26321652235899        1.73213160850031        0.00960051227376
H           -1.88705874460978        2.87662066076791       -0.12527198166615
H           -2.58292643548048        2.12168854276605       -1.58062562460036
H           -1.98794959183438       -2.96246751523095        0.73591498842464
H           -2.19418957942101       -2.88070057276021       -1.02102154727301
H           -0.64844744587633       -3.46597974470119       -0.32851893531451
24
 energy: -42.153794067125 gnorm: 0.001545348829 xtb: 6.6.0 (conda-forge)
C            3.31744191561735        0.02068115516705        0.19422899387827
N            2.06296015486123        0.69655782067859        0.02899495715597
C            1.82412568752065        2.01705534066176       -0.03505282276041
N            0.55122950328128        2.31650970698583       -0.19002305191836
C           -0.07684636452133        1.12075887057889       -0.22842590799593
C            0.83622096324150        0.08531716398632       -0.09462427675682
C            0.45242133990299       -1.29350250947919       -0.08537969255550
O            1.18765472094324       -2.25676024388515        0.01898868116790
N           -0.93257736209211       -1.42484287839057       -0.21621853426074