33
 energy: -45.150038986231 gnorm: 0.139433611069 xtb: 6.6.0 (conda-forge)
C           -3.31920000000000       -0.29790000000000       -1.26580000000000
C           -3.36200000000000        0.52930000000000        0.02600000000000
C           -3.01260000000000        1.99670000000000       -0.25590000000000
C           -2.48230000000000       -0.07970000000000        1.14290000000000
C           -1.01040000000000       -0.12750000000000        0.80430000000000
C           -0.46650000000000       -1.24830000000000        0.15840000000000
C            0.89170000000000       -1.28730000000000       -0.16720000000000
C            1.73380000000000       -0.20490000000000        0.14920000000000
C            1.18640000000000        0.91320000000000        0.80170000000000
C           -0.17220000000000        0.95080000000000        1.12670000000000
C            3.20860000000000       -0.23400000000000       -0.19840000000000
C            3.93640000000000       -1.35790000000000        0.55050000000000
C            3.40080000000000       -0.33610000000000       -1.68780000000000
O            3.37330000000000       -1.45620000000000       -2.26680000000000
O            3.56200000000000        0.82420000000000       -2.43890000000000
H           -2.31740000000000       -0.24160000000000       -1.74170000000000
H           -3.55960000000000       -1.36070000000000       -1.05020000000000
H           -4.07140000000000        0.08700000000000       -1.98700000000000
H           -4.41170000000000        0.50740000000000        0.39460000000000
H           -2.00640000000000        2.08480000000000       -0.71770000000000
H           -3.75740000000000        2.43610000000000       -0.95330000000000
H           -3.03250000000000        2.58490000000000        0.68620000000000
H           -2.84340000000000       -1.10720000000000        1.36910000000000
H           -2.62800000000000        0.50440000000000        2.07820000000000
H           -1.09580000000000       -2.09190000000000       -0.09660000000000
H            1.28440000000000       -2.16250000000000       -0.66830000000000
H            1.81010000000000        1.75990000000000        1.05990000000000
H           -0.57190000000000        1.82370000000000        1.62780000000000
H            3.68370000000000        0.71870000000000        0.12580000000000
H            5.02300000000000       -1.32540000000000        0.32080000000000
H            3.80870000000000       -1.22670000000000        1.64640000000000
H            3.54300000000000       -2.35630000000000        0.26410000000000
H            3.67490000000000        0.78060000000000       -3.44460000000000
33
 energy: -45.167364692076 gnorm: 0.046023878241 xtb: 6.6.0 (conda-forge)
C           -3.31684321364234       -0.29501599300373       -1.25788513324042
C           -3.36393878530617        0.52805307098058        0.02902854040355
C           -3.01177236620947        1.98839033101940       -0.25278664187797
C           -2.47510640439730       -0.07805695292703        1.13564608221564
C           -1.00715332546623       -0.12539227399767        0.79787013557189
C           -0.45426630317876       -1.23288906447998        0.15887352337242
C            0.89447355383061       -1.26946814793650       -0.16769534615222
C            1.72907934978234       -0.19492820508393        0.13598958391217
C            1.17957928737593        0.90633707365712        0.78716456145528
C           -0.16835550994957        0.93913207973921        1.11578160738075
C            3.20959703907574       -0.21935687004185       -0.20310227547550
C            3.93330207240343       -1.35223030440644        0.53566215578243
C            3.38018303669210       -0.36201249290321       -1.69551037261492
O            3.37244864455654       -1.43086810675038       -2.27424392725221
O            3.55236195089070        0.80200189591179       -2.37654364189551
H           -2.33027129212360       -0.24427217056363       -1.72528090382837
H           -3.55192737914748       -1.34352584651507       -1.05657801504164
H           -4.05216223469842        0.08178867539686       -1.97462925407769
H           -4.40088987782561        0.50249323339256        0.40225789423208
H           -2.02007565221083        2.07713661019376       -0.70351213312705
H           -3.73880472663756        2.42615641477736       -0.94285181040297
H           -3.02828536332887        2.57649659979658        0.66874990459177
H           -2.83317335729645       -1.09524705979132        1.34909844088814
H           -2.61915467785342        0.50800603035479        2.05463317057299
H           -1.08145608581293       -2.07777291406929       -0.08947223872251
H            1.29165681223460       -2.13915093297964       -0.67133155825207
H            1.80586138236311        1.74805448977233        1.04972798027934
H           -0.56712996387251        1.80621989782482        1.62364546112401
H            3.66161377576558        0.73608645863680        0.10892211439576
H            5.00455883454760       -1.33150815479689        0.31684339662447
H            3.80127886625294       -1.22597132541755        1.61430087496008
H            3.54598594484183       -2.33313550597604        0.25314684380732
H            3.65888596834447        0.72404946018617       -3.35351901960902
33
 energy: -45.170547946242 gnorm: 0.014708532840 xtb: 6.6.0 (conda-forge)
C           -3.31195176800230       -0.29389113718934       -1.25500057052890
C           -3.36174253957538        0.52604889077322        0.03042348540861
C           -3.00783668561398        1.98317206024226       -0.25092595967115
C           -2.46760099198012       -0.07990091301633        1.13161499171475
C           -1.00531167001828       -0.12042379412999        0.78498259004685
C           -0.44614752201089       -1.22080129790517        0.14673398885445
C            0.89796403595980       -1.25517169592463       -0.17890813812213
C            1.72851655477006       -0.18616127567369        0.12870393636992
C            1.17698405976453        0.90910347853417        0.77699937345928
C           -0.16690745451809        0.93955952691235        1.10237808142435
C            3.21082464641244       -0.21259560933424       -0.20134329765765
C            3.92762263319340       -1.34680172229221        0.53707778546090
C            3.38197189243603       -0.38764451392193       -1.69469942942740
O            3.34419723390548       -1.42732689804255       -2.28315242246443
O            3.53846160541303        0.78863773911164       -2.31838894768309
H           -2.32578473829194       -0.24216540831696       -1.70700813890794
H           -3.54775027932362       -1.33548928861871       -1.05561636338901
H           -4.03713159062224        0.08673059643562       -1.96965853706147
H           -4.38977481957233        0.49584479389031        0.41086657523335
H           -2.01829563068467        2.06103446088720       -0.69173628246656
H           -3.72613564671004        2.41538078755291       -0.94283015297297
H           -3.02666318705142        2.56731535450468        0.66497217876199
H           -2.81819350047407       -1.09428427016991        1.33408923116069
H           -2.60444163479961        0.50890825069646        2.04145652521249
H           -1.06977130172505       -2.07037323271162       -0.09218764087695
H            1.30109296427656       -2.12150652088323       -0.68226293499782
H            1.80451720629379        1.74924046421131        1.03951320250041
H           -0.56550166500197        1.80020100828445        1.62014215693684
H            3.65000819735180        0.74666479851816        0.08751396442107
H            4.99056210800145       -1.32597332915214        0.31347807912681
H            3.79026721331364       -1.22806399140710        1.60838946246148
H            3.53376156350777       -2.31092360108312        0.23461956102068
H            3.62029071137622        0.68125628921814       -3.27783635334746
33
 energy: -45.170847142207 gnorm: 0.005405805466 xtb: 6.6.0 (conda-forge)
C           -3.30680065963097       -0.29532385763305       -1.25279273724226
C           -3.36100884380474        0.52368818300821        0.03328798124834
C           -3.00296354638386        1.97983364269915       -0.24898692205744
C           -2.46353368097085       -0.08187509488306        1.13199933909832
C           -1.00338280605262       -0.11868906015437        0.78157839213018
C           -0.44462646932728       -1.21785313201199        0.13993117158813
C            0.89902116046719       -1.25096475197022       -0.18500651644020
C            1.72794007983626       -0.18267816339053        0.12986289893249
C            1.17671263438249        0.91534149919677        0.77417175847151
C           -0.16709077534335        0.94391992960708        1.09877268212990
C            3.20765619006175       -0.21315644890983       -0.19642370967551
C            3.92440259657177       -1.34614001151496        0.54262583755052
C            3.35416836093406       -0.38946306707082       -1.69322506796145
O            3.33071426914950       -1.43125574858021       -2.28778440040260
O            3.53155953439011        0.78921271346966       -2.30546561207183
H           -2.31588269355723       -0.24553764718859       -1.69691755289373
H           -3.54747471259000       -1.33712033084972       -1.05605374294718
H           -4.02566780403012        0.08981761433744       -1.97240956934023
H           -4.38850280785508        0.49265988245305        0.41523676921553
H           -2.00921254751858        2.05240079197479       -0.68360025845662
H           -3.71575502241111        2.41148484352823       -0.94795681824251
H           -3.02619569861177        2.56679863698748        0.66592576060212
H           -2.81058552747567       -1.09774333419503        1.33217030168161
H           -2.59780657778832        0.50692947242288        2.04197224898299
H           -1.06796153307707       -2.06653551734490       -0.10204277523821
H            1.30436177917607       -2.11307843121869       -0.69372116249130
H            1.80449979829863        1.75594173423821        1.03439589860730
H           -0.56758685495338        1.80410567372406        1.61555347118147
H            3.64621501155247        0.75071450097807        0.07639656218368
H            4.98819922936624       -1.32533344690621        0.31935319211074
H            3.78517700337627       -1.23459089079738        1.61460061520879
H            3.52734104187365       -2.30717802437404        0.23103312539587
H            3.61416987194552        0.67126784036849       -3.26408116085841
33
 energy: -45.170971577349 gnorm: 0.004524760594 xtb: 6.6.0 (conda-forge)
C           -3.30114571316387       -0.29723539165245       -1.25115245988470
C           -3.35866500941174        0.52106358374711        0.03551118910636
C           -2.99777229829488        1.97668977186752       -0.24691024429976
C           -2.45974199349154       -0.08448935154847        1.13315840048459
C           -1.00101641918306       -0.11726719864961        0.77936863112885
C           -0.44310097228958       -1.21438823207840        0.13263334485642
C            0.90046323263257       -1.24542500049427       -0.19230208547590
C            1.72838353121512       -0.17738763901745        0.12895125000796
C            1.17680587612995        0.92201794684846        0.77176377564466
C           -0.16731121817997        0.94835355460324        1.09596646796330
C            3.20754238621029       -0.21346054143541       -0.19169396071497
C            3.91932311577328       -1.34728857707332        0.54887095022056
C            3.35405039156644       -0.38988036510317       -1.68834077083554
O            3.30680842566477       -1.43104345593868       -2.28873447762339
O            3.52289590504050        0.78902751742443       -2.30178042931896
H           -2.30575941806425       -0.25155946773010       -1.68802019597604
H           -3.54844815496076       -1.33898834091844       -1.05770218322755
H           -4.01281438217178        0.09264923548733       -1.97652324314656
H           -4.38654420407703        0.48986750853797        0.41718932511806
H           -1.99947390627611        2.04612175563033       -0.67395905737112
H           -3.70414817419503        2.40821223894749       -0.95364093384513
H           -3.02721821150618        2.56676058044689        0.66682314676359
H           -2.80404233084361       -1.10188387963528        1.33213859456019
H           -2.59330526347959        0.50287641526097        2.04450924257348
H           -1.06648027902083       -2.06174888685926       -0.11351773749360
H            1.30808537256308       -2.10422173838469       -0.70466637501842
H            1.80462278660427        1.76277368128185        1.03112757439129
H           -0.57034660611422        1.80820406438392        1.61123236844109
H            3.64921928800060        0.75122893793529        0.07218131439774
H            4.98534578948025       -1.32613240744552        0.33230190916166
H            3.77362181945172       -1.24086602295587        1.62090672414359
H            3.52294234936780       -2.30730588198372        0.22984843791328
H            3.58732428502342        0.66432558650128       -3.26313849264504
33
 energy: -45.171027612132 gnorm: 0.003067936815 xtb: 6.6.0 (conda-forge)
C           -3.29585984229653       -0.29869570058534       -1.25054532742755
C           -3.35519306309940        0.51921250486065        0.03619048822792
C           -2.99294295246426        1.97457040335976       -0.24524635348168
C           -2.45736655894317       -0.08678638085436        1.13447941182477
C           -0.99919586857139       -0.11655589416220        0.77914464422083
C           -0.44210638893032       -1.21144032458349        0.12792295431037
C            0.90145140296376       -1.24097500713999       -0.19658605897080
C            1.72888344290610       -0.17362536306638        0.12930447599256
C            1.17714752732442        0.92571637062427        0.77219627999873
C           -0.16726147475901        0.95054460834681        1.09577667892343
C            3.20777379079956       -0.21241606220526       -0.19008505804900
C            3.91476644795176       -1.34724641810489        0.55247485387801
C            3.34728176965996       -0.38943958852463       -1.68734046451247
O            3.29274757567883       -1.43024181758163       -2.28570548711588
O            3.51405296209867        0.78680622445663       -2.30564436356876
H           -2.29755571298073       -0.25849987910912       -1.68155997425431
H           -3.55038365468863       -1.33929887138224       -1.05941924395504
H           -4.00080467282519        0.09569092327216       -1.98013098946358
H           -4.38362004212820        0.48828954903513        0.41635029179741
H           -1.99111647716571        2.04320201593955       -0.66442406808254
H           -3.69340263294366        2.40538236326485       -0.95835202204071
H           -3.02953091224544        2.56611849160527        0.66743552994030
H           -2.80013651775028       -1.10503959168399        1.33251062536802
H           -2.59185940987644        0.49858709022246        2.04712884025866
H           -1.06584932679707       -2.05738976092345       -0.12211364847086
H            1.31050147119252       -2.09654477658214       -0.71299612261117
H            1.80477425342028        1.76692058789095        1.03039487254083
H           -0.57229733385412        1.80998760985729        1.61017420078458
H            3.65306529340552        0.75126889066600        0.07072967240423
H            4.98262957161718       -1.32540633755872        0.34459706900494
H            3.76127338144796       -1.24420397935390        1.62394663284191
H            3.52145443847643       -2.30720970398899        0.22914801614483
H            3.56877951337665        0.65831782398893       -3.26735635645795
33
 energy: -45.171073633077 gnorm: 0.001841150533 xtb: 6.6.0 (conda-forge)
C           -3.28772608668684       -0.30078146366668       -1.25041644875880
C           -3.35032708354877        0.51704932651159        0.03599671290862
C           -2.98575611427055        1.97194142777981       -0.24357016505371
C           -2.45488598877123       -0.08936176962202        1.13581039575211
C           -0.99661526649241       -0.11586923969383        0.78098201114631
C           -0.44035515385857       -1.20745804878345        0.12397260031676
C            0.90273509604052       -1.23432884158339       -0.20143520380320
C            1.72943469590604       -0.16769875778214        0.12865077029482
C            1.17770342440618        0.93007016352832        0.77367605324578
C           -0.16657940328687        0.95217580644289        1.09844362880091
C            3.20859707014658       -0.21011768649742       -0.19035336651581
C            3.90851772616494       -1.34647087930841        0.55549493268706
C            3.33812675986657       -0.39086800876068       -1.68787460296651
O            3.27608342883400       -1.43269120606808       -2.28190749055277
O            3.50023713057943        0.78276888216265       -2.31316461042630
H           -2.28583930038487       -0.26999343430592       -1.67334764538651
H           -3.55374061893912       -1.33887168474408       -1.06186270950692
H           -3.98265505513402        0.10037716354257       -1.98551421755524
H           -4.37983196491842        0.48676355529033        0.41310882695222
H           -1.97906542120016        2.04092878588490       -0.65041732708054
H           -3.67751161192335        2.40093513190816       -0.96578624650652
H           -3.03411160264465        2.56479826070367        0.66758653288948
H           -2.79623109664598       -1.10850312443507        1.33203001112204
H           -2.59201368656583        0.49366942755105        2.04964145132381
H           -1.06434566322248       -2.05196250562642       -0.13022042962747
H            1.31331460446201       -2.08603825673168       -0.72265160855564
H            1.80512940306304        1.77131049024028        1.03207934262392
H           -0.57360111293745        1.81012097683956        1.61383966784015
H            3.65858521211898        0.75141015837169        0.07027769446745
H            4.97919516077862       -1.32251206072214        0.36301696033002
H            3.74020538870437       -1.24687443918786        1.62535512219560
H            3.52134706894744       -2.30650640221380        0.22542951081011
H            3.54208006141285        0.65218825297556       -3.27447015341119
33
 energy: -45.171095655979 gnorm: 0.001600871913 xtb: 6.6.0 (conda-forge)
C           -3.28074556904247       -0.30201002174657       -1.25177306374673
C           -3.34601382204726        0.51606058836863        0.03431888993405
C           -2.98000088309858        1.97086941995710       -0.24339353607068
C           -2.45421089492885       -0.09069645601317        1.13679172374250
C           -0.99526173769974       -0.11566111999758        0.78441152454428
C           -0.43914966143848       -1.20514629995221        0.12408966756645
C            0.90321602166995       -1.22990611329440       -0.20319271453835
C            1.72945175743969       -0.16342229348891        0.12777854341397
C            1.17840420797589        0.93153062982768        0.77744797544727
C           -0.16543296850249        0.95146412151983        1.10451426889156
C            3.20896398798017       -0.20747698245081       -0.19343315263819
C            3.90411999310641       -1.34437323186850        0.55624661085603
C            3.33165236943991       -0.39326766721993       -1.69015333322030
O            3.26916100556515       -1.43763028712882       -2.27903847776639
O            3.48666555173064        0.77905946491238       -2.32107500730668
H           -2.27603586009838       -0.27952845862430       -1.66756997435740
H           -3.55665810899565       -1.33760568629776       -1.06497766047293
H           -3.96694982434286        0.10484725973028       -1.99147841924717
H           -4.37664372228021        0.48644122306490        0.40810533937890
H           -1.96929287895521        2.04052944890820       -0.63911544205220
H           -3.66417252854037        2.39805154163506       -0.97340852485851
H           -3.03896455190394        2.56431929503048        0.66650334030711
H           -2.79513844985256       -1.11028898909204        1.33092397220392
H           -2.59426973920343        0.49154605295085        2.05060169328379
H           -1.06272236461985       -2.04967717199041       -0.13074455712519
H            1.31398253261186       -2.07960972848130       -0.72730268661539
H            1.80556206830741        1.77251930943500        1.03746042181146
H           -0.57236087687307        1.80700398509202        1.62404265723174
H            3.66097362238430        0.75317129827188        0.06748662897349
H            4.97682718804255       -1.31610077236956        0.37792920425189
H            3.72130191602704       -1.24870297606819        1.62417459827924
H            3.52453998688045       -2.30443398501123        0.21801135844975
H            3.51930223326202        0.64772460239134       -3.28178186855121
33
 energy: -45.171111974241 gnorm: 0.001036363783 xtb: 6.6.0 (conda-forge)
C           -3.27695479901217       -0.30158055503778       -1.25364304402964
C           -3.34465597002216        0.51662137255096        0.03242426842497
C           -2.97726497172190        1.97140742534343       -0.24439644770171
C           -2.45548078004175       -0.09037304827706        1.13708192655576
C           -0.99568314862433       -0.11653511699734        0.78819921436164
C           -0.43939773573708       -1.20575454843504        0.12740353460487
C            0.90242530736684       -1.22976087039688       -0.20196681519586
C            1.72866282384306       -0.16294212040691        0.12768454613396
C            1.17866908550312        0.92971006164830        0.78190849604733
C           -0.16473322087185        0.94890746426851        1.11104179767881
C            3.20800489146840       -0.20582135575272       -0.19659246252568
C            3.90400986321937       -1.34145233304026        0.55494620783892
C            3.32998802541380       -0.39502444237585       -1.69225347313760
O            3.27418458659408       -1.44186617979598       -2.27807278283613
O            3.47685259531943        0.77700344336573       -2.32591271763097
H           -2.27084888379197       -0.28250903895395       -1.66583877222928
H           -3.55715541582703       -1.33608821017620       -1.06787407764789
H           -3.95909026459018        0.10767652189572       -1.99558309981377
H           -4.37616711650753        0.48746243832021        0.40390116112652
H           -1.96463164991180        2.04130550277181       -0.63472031900331
H           -3.65776683787386        2.39779070251604       -0.97812014146960
H           -3.04137518202938        2.56517873197459        0.66480687673998
H           -2.79746213388799       -1.10962958100919        1.33030094026598
H           -2.59742665441857        0.49258223374046        2.04998575370881
H           -1.06256585513855       -2.05087861893463       -0.12632623347955
H            1.31223208277170       -2.07976720792794       -0.72639619787523
H            1.80584177790831        1.77001544978820        1.04431193567142
H           -0.57009621531479        1.80288043676333        1.63435680096831
H            3.65858286051674        0.75606124145523        0.06241221779151
H            4.97744430362309       -1.30783314205881        0.38370671143250
H            3.71325115384006       -1.24977002436524        1.62149464465258
H            3.53068510079352       -2.30171142456445        0.21052811580074
H            3.50802237714138        0.64429479210364       -3.28639856522836
33
 energy: -45.171128135374 gnorm: 0.000991356543 xtb: 6.6.0 (conda-forge)
C           -3.27102003760582       -0.30013063625512       -1.25640199232410
C           -3.34207717081091        0.51787212829069        0.02970930575258
C           -2.97283749660536        1.97256395331790       -0.24568561367742
C           -2.45781660996590       -0.09003863283726        1.13819159501237
C           -0.99717093665224       -0.11833379804223        0.79320664657328
C           -0.44100002402824       -1.20716742974542        0.13134676206521
C            0.90046832035456       -1.23083363457527       -0.19988303564800
C            1.72694689890800       -0.16399806905762        0.12916857153650
C            1.17843895502562        0.92574017298959        0.78947564004479
C           -0.16467135870692        0.94471559320846        1.12012151859619
C            3.20535825709871       -0.20385994921716       -0.19998451044725
C            3.90559100838898       -1.33604488452802        0.55326031486715
C            3.32690068080230       -0.39762987904451       -1.69491208388939
O            3.28418353996878       -1.44787229205156       -2.27671841533285
O            3.45821152478930        0.77355325675155       -2.33343554097745
H           -2.26255733773314       -0.28457427777177       -1.66307744004908
H           -3.55623314116808       -1.33370109873384       -1.07260514618331
H           -3.94762981665582        0.11228200519495       -2.00183962148556
H           -4.37495419429171        0.48958530846769        0.39743208303186
H           -1.95731621328909        2.04176768044844       -0.62872496624805
H           -3.64803945704052        2.39831861503373       -0.98486390608858
H           -3.04344531900328        2.56718178387893        0.66257101416761
H           -2.80215904251582       -1.10861749871519        1.33069070428301
H           -2.60200968712731        0.49414851913593        2.04993233462175
H           -1.06405452903266       -2.05253852046178       -0.12191654712365
H            1.30892825824270       -2.08088573457969       -0.72553046505375
H            1.80592944015242        1.76487309869851        1.05487572636790
H           -0.56805845411461        1.79698459920480        1.64771082254456
H            3.65315324799265        0.76049394056147        0.05439236996141
H            4.98019859011913       -1.29175221264362        0.39149253604297
H            3.70400041576239       -1.25170844098344        1.61828594894308
H            3.54373276025523       -2.29752920344224        0.19959666383163
H            3.49110892848673        0.63673553750303       -3.29348127371531
33
 energy: -45.171136295137 gnorm: 0.000739082571 xtb: 6.6.0 (conda-forge)
C           -3.26605637045302       -0.29838838055300       -1.25823316563479
C           -3.34093514998474        0.51915235082257        0.02795020139103
C           -2.96859200082887        1.97330665972193       -0.24624406953477
C           -2.45973545004861       -0.08982521305649        1.13848051963770
C           -0.99843671431118       -0.12055498267611        0.79690639472367
C           -0.44272649256460       -1.20879964242139        0.13365585317344
C            0.89851989213891       -1.23212592569108       -0.19891919294877
C            1.72520611484052       -0.16556142221451        0.13054233889924
C            1.17752408479902        0.92258851909166        0.79426774941806
C           -0.16529434978628        0.94129247976446        1.12603603357629
C            3.20280446472191       -0.20303167345174       -0.20126461901469
C            3.90812169247932       -1.33170619327007        0.55246944824577
C            3.32389198111306       -0.39972731377996       -1.69623623328540
O            3.29144444083019       -1.45185995145573       -2.27523241514494
O            3.44173257291934        0.77082637840427       -2.33826507278311
H           -2.25646579492074       -0.28389825599094       -1.66205453702705
H           -3.55310075673342       -1.33165652676398       -1.07600937482368
H           -3.93983710789258        0.11503245247460       -2.00546805152243
H           -4.37493823249771        0.49178300283053        0.39277596298802
H           -1.95158735627602        2.04190578981167       -0.62539452755526
H           -3.64046979476520        2.39947090908226       -0.98803579567867
H           -3.04233836454624        2.56835215385629        0.66138800427659
H           -2.80643878166653       -1.10760617011330        1.33083770040975
H           -2.60511468060213        0.49505935683515        2.04953660369253
H           -1.06622626971871       -2.05350618486386       -0.12080895280508
H            1.30653634792041       -2.08197760355482       -0.72527176303569
H            1.80561498961552        1.76061164607841        1.06166343565703
H           -0.56807155613360        1.79285684873799        1.65519341008164
H            3.64833822312956        0.76326147826489        0.04933196624360
H            4.98306034680581       -1.27854659526740        0.39608524625268
H            3.70110258419933       -1.25258533813113        1.61658087757877
H            3.55577830205752       -2.29484550469555        0.19405741587689
H            3.47678918615977        0.63030285217429       -3.29792139132823
33
 energy: -45.171141570094 gnorm: 0.000484980253 xtb: 6.6.0 (conda-forge)
C           -3.26274600235108       -0.29674220618042       -1.25985417835433
C           -3.33886242560444        0.52024368845159        0.02647732433033
C           -2.96505112686609        1.97420237234392       -0.24637597508020
C           -2.46104357230168       -0.09020981967108        1.13888765456409
C           -0.99963672630242       -0.12222946383839        0.79810193254895
C           -0.44425197678652       -1.21014564046968        0.13414233515023
C            0.89719705732213       -1.23373124744887       -0.19789082137507
C            1.72402107207510       -0.16749286963522        0.13237831179929
C            1.17656431835054        0.92005759955595        0.79743755082256