24
 energy: -42.153850386506 gnorm: 0.000321496620 xtb: 6.6.0 (conda-forge)
C            3.32055319564365        0.02278387431817        0.18087015563979
N            2.06337695065489        0.69561610056496        0.02587985862363
C            1.82491534843325        2.01588179729007       -0.04937115590872
N            0.55176454383253        2.31516023761128       -0.19830061916386
C           -0.07795501154353        1.11968238565307       -0.22304769763860
C            0.83552248048908        0.08429337270819       -0.08451705697905
C            0.45018105240492       -1.29431403058618       -0.06744365457787
O            1.18488539339712       -2.25659933478187        0.05037569848951
N           -0.93409400061156       -1.42583767782391       -0.20775833396643
C           -1.87536134122932       -0.41310188844028       -0.34906251834917
O           -3.05510376980055       -0.66309739224710       -0.46020382695787
N           -1.40998025817580        0.88494156336875       -0.35055934654044
C           -2.34622899478901        1.97670592717678       -0.50880117187138
C           -1.48116517355225       -2.77277072207421       -0.21167357502722
H            3.28836585085123       -0.62601598768505        1.05703442747431
H            4.11319698098658        0.75985481493113        0.29435087706720
H            3.52012298519264       -0.60243332971983       -0.69093166253115
H            2.60040218116023        2.75371097195598        0.00726095328887
H           -3.27513712371420        1.71748603448120       -0.00340832720150
H           -1.89961847036617        2.86872857321806       -0.07725223972047
H           -2.55601305056487        2.14737363004183       -1.56618115729947
H           -2.11034267363567       -2.92215949536634        0.66576599512561
H           -2.08831697219374       -2.91855151314594       -1.10408481648922
H           -0.64447012286948       -3.46733791144876       -0.19764080548651
