20
 energy: -32.759264787100 gnorm: 0.121016801182 xtb: 6.6.0 (conda-forge)
C           -3.79370000000000        0.11730000000000        0.16860000000000
C           -2.37830000000000        0.23180000000000       -0.29560000000000
O           -2.13310000000000        0.79700000000000       -1.39540000000000
N           -1.32570000000000       -0.38290000000000        0.46350000000000
C            0.07570000000000       -0.18190000000000        0.21060000000000
C            0.97880000000000       -1.22270000000000        0.47730000000000
C            2.34860000000000       -1.04570000000000        0.26060000000000
C            2.83340000000000        0.18130000000000       -0.21050000000000
C            1.94210000000000        1.22980000000000       -0.45750000000000
C            0.57140000000000        1.05480000000000       -0.24240000000000
O            4.19590000000000        0.36990000000000       -0.43080000000000
H           -4.41510000000000        0.91840000000000       -0.28500000000000
H           -3.83840000000000        0.21560000000000        1.27350000000000
H           -4.20070000000000       -0.87170000000000       -0.12740000000000
H           -1.59830000000000       -1.08210000000000        1.19120000000000
H            0.61810000000000       -2.17560000000000        0.84410000000000
H            3.03170000000000       -1.86120000000000        0.46130000000000
H            2.31300000000000        2.18470000000000       -0.80780000000000
H           -0.09270000000000        1.89280000000000       -0.40560000000000
H            4.86720000000000       -0.36970000000000       -0.25970000000000
20
 energy: -32.775321749906 gnorm: 0.045345318789 xtb: 6.6.0 (conda-forge)
C           -3.75071465586937        0.10033625713173        0.18707791530772
C           -2.34098517177382        0.22110342698946       -0.32088673010555
O           -2.09422662522686        0.81222241472245       -1.36103667629021
N           -1.32335505364980       -0.35573545752931        0.44030202376916
C            0.06903675660522       -0.17497656199005        0.20905925776858
C            0.96608506327060       -1.21177341025191        0.47253159646372
C            2.32925533461737       -1.04139432520582        0.26382452062164
C            2.82220469013631        0.17268163349997       -0.20768659098671
C            1.93476126064052        1.21592986676693       -0.45082267787911
C            0.57457718679422        1.04586185799021       -0.23823281760047
O            4.16161923415614        0.38792392118906       -0.43168182412426
H           -4.36091297040154        0.88416084818601       -0.27078372261710
H           -3.81869571123489        0.19244531248406        1.27532931813158
H           -4.17635663213065       -0.86263935901688       -0.11143928345063
H           -1.59209395500118       -1.03875610879128        1.14908465277540
H            0.60515841469666       -2.16271041079959        0.83929351697277
H            3.01135786423907       -1.85645278527897        0.46548887172029
H            2.31057592677977        2.16512683409254       -0.80251778295011
H           -0.09157372159465        1.87337115722219       -0.42408722094676
H            4.76418276494686       -0.36682511141081       -0.24981634657998
20
 energy: -32.779191190708 gnorm: 0.015897281838 xtb: 6.6.0 (conda-forge)
C           -3.71005549305244        0.07709653293351        0.20021075020247
C           -2.30297407114194        0.25691302471491       -0.32889454173216
O           -2.07272052447080        0.84179722836863       -1.35452376125549
N           -1.32275910566584       -0.32614163364213        0.42466175627953
C            0.06064079000543       -0.16991873364465        0.19949368215706
C            0.94909387531427       -1.20680649887061        0.46592079022309
C            2.30882079642139       -1.04074696697405        0.26735128619396
C            2.80871053289156        0.16779761724087       -0.20065083259491
C            1.92438866550451        1.21060680976872       -0.44882589168627
C            0.57041281864386        1.04355901279793       -0.24769688141684
O            4.13063488449570        0.39593734838376       -0.42516648521130
H           -4.32773672039619        0.84711528854515       -0.25447558358265
H           -3.76515837580654        0.16352090919058        1.28022687512526
H           -4.11491630243857       -0.88729281979421       -0.09846040216521
H           -1.59039766499483       -0.99854609274990        1.12453151464525
H            0.58419250399753       -2.15548034284436        0.83358631227487
H            2.98826842740535       -1.85760144889758        0.47232875295656
H            2.31054494933503        2.15443331057551       -0.79823467692238
H           -0.09871760998150        1.86422225969876       -0.44476117880482
H            4.66962762393401       -0.38056480480085       -0.23362148468602
20
 energy: -32.779992792310 gnorm: 0.009314628998 xtb: 6.6.0 (conda-forge)
C           -3.69645560986215        0.05882939127458        0.20297258896937
C           -2.29548555752779        0.26112024042384       -0.34441087027524
O           -2.07110678587660        0.90569378800336       -1.34498003895944
N           -1.32037696324795       -0.31462103924997        0.41582574710975
C            0.06019921344180       -0.15773542444845        0.19945312420667
C            0.94021365610470       -1.19793251403390        0.47151973072918
C            2.29927563511267       -1.03771070882664        0.27263369398480
C            2.80242372634315        0.16775458315968       -0.19963261334899
C            1.92247597894170        1.21408272644850       -0.45705174433954
C            0.56926265625652        1.05287925918687       -0.25857583681302
O            4.12428714596134        0.38536350028331       -0.41826834251782
H           -4.33361278291367        0.82630766954940       -0.22921528846683
H           -3.72460930183988        0.12708903821750        1.28629349596717
H           -4.07984975615331       -0.91191068780352       -0.10294078017226
H           -1.58843539555123       -0.98898259941143        1.11442419367079
H            0.56799072330031       -2.14451002554644        0.83800541825905
H            2.97472697918178       -1.85706434745470        0.48229418640922
H            2.31751371422799        2.15247334298420       -0.81027780461335
H           -0.10195558157166        1.86895743248826       -0.46808105663188
H            4.63341830567227       -0.41018362524446       -0.21698780316764
20
 energy: -32.780446354695 gnorm: 0.010441753272 xtb: 6.6.0 (conda-forge)
C           -3.69299740822737        0.03903992564280        0.20431893514642
C           -2.29578102995147        0.29195401688731       -0.33874860870387
O           -2.08469822619272        0.95659072357853       -1.33046227213504
N           -1.31808553897814       -0.29550531960763        0.40815527914539
C            0.06193262162323       -0.14426773125865        0.19123114716855
C            0.93231350690411       -1.18969380306944        0.47094478208974
C            2.29286957150111       -1.03616072172891        0.27615837870316
C            2.80165404873199        0.16649426186014       -0.19814446936977
C            1.92844514215083        1.21806486761840       -0.46536578928882
C            0.57404768500557        1.06464854934456       -0.27183167320272
O            4.12825067529004        0.36801854302188       -0.40866086701270
H           -4.36195151264404        0.79049450357764       -0.21123267352172
H           -3.70460675309926        0.09526189364752        1.29009781223367
H           -4.03988534071765       -0.94591623608689       -0.10590866236652
H           -1.58796304228648       -0.97769363294994        1.10171773608216
H            0.55057322827370       -2.13163425152734        0.84031819373998
H            2.96325076145413       -1.85859934025126        0.49090101627904
H            2.33350396912525        2.15116965867606       -0.82163205688287
H           -0.09676703761529        1.87889853602456       -0.48796751701921
H            4.61579467965245       -0.44126444339934       -0.20088869108490
20
 energy: -32.780801767351 gnorm: 0.008175171512 xtb: 6.6.0 (conda-forge)
C           -3.69453874856173        0.02048752610714        0.20664873995571
C           -2.30340220574326        0.31702097357189       -0.33104056846734
O           -2.10487249570000        1.00342619079783       -1.30928264474057
N           -1.31680040470181       -0.27758283716622        0.40013991474428
C            0.06398828017240       -0.12914048074111        0.18345077741700
C            0.92538751385614       -1.17981587737026        0.47160387431103
C            2.28792466683443       -1.03518282911351        0.27959185756330
C            2.80398869606837        0.16359791306944       -0.19686247836301
C            1.93905471841765        1.22059464891271       -0.47290892153226
C            0.58237928845544        1.07652532633116       -0.28437681313367
O            4.13675374387988        0.34883835091331       -0.40040508210093
H           -4.39208682551448        0.75040960033382       -0.20011272854863
H           -3.70025332958532        0.07157279228989        1.29309862714814
H           -4.00667796783606       -0.97639299874601       -0.10627887349293
H           -1.58672969466763       -0.97125904884548        1.08447778833952
H            0.53345957020332       -2.11673595494330        0.84307928043268
H            2.95275513990717       -1.86107510412088        0.49829381527703
H            2.35417201205665        2.14874911691472       -0.83125842632736
H           -0.08586704764216        1.89106090436591       -0.50484385631128
H            4.61126509010097       -0.46519821256105       -0.19001428217075
20
 energy: -32.781165742492 gnorm: 0.008010125806 xtb: 6.6.0 (conda-forge)
C           -3.69657397649624       -0.00198684315994        0.21088467566597
C           -2.31465907782786        0.34426595444994       -0.31954789095292
O           -2.12979922445131        1.06596369368770       -1.27447691998281
N           -1.31585853682024       -0.25851572691712        0.39042623242942
C            0.06537888105199       -0.11118671996038        0.17415850940636
C            0.91764595295543       -1.16693757586734        0.47243123223557
C            2.28207836729759       -1.03367666317246        0.28448646660708
C            2.80784011399693        0.15924846124936       -0.19569430778947
C            1.95304417317365        1.22134384353604       -0.48184473889978
C            0.59351983929569        1.08862539962886       -0.29909816900730
O            4.14646326512260        0.32760130489086       -0.39284015191356
H           -4.42090325387799        0.70082393461932       -0.19334276302209
H           -3.70682157122903        0.04592040551873        1.29704491366091
H           -3.97091134463457       -1.00909006093681       -0.10556773676816
H           -1.58291726973288       -0.96989713932498        1.05864756088235
H            0.51505188633222       -2.09732270374624        0.84830627839006
H            2.94028719276689       -1.86304736713951        0.50941389952552
H            2.37849685650380        2.14355671740816       -0.84376969166033
H           -0.07023291828720        1.90454262752060       -0.52747257719937
H            4.60877064486051       -0.49033154228478       -0.17914482160751
20
 energy: -32.781549150141 gnorm: 0.009785099155 xtb: 6.6.0 (conda-forge)
C           -3.69781219598704       -0.02854093025739        0.21628726462356
C           -2.32827811451310        0.37922480233217       -0.30070040755553
O           -2.16028986585423        1.15200743249369       -1.21910893298797
N           -1.31517118035484       -0.23758971931928        0.37867098092827
C            0.06548113474274       -0.09030339463013        0.16259448648813
C            0.90849188365832       -1.15067947123921        0.47398647866371
C            2.27439410289557       -1.03191537514832        0.29177942333831
C            2.81275415799577        0.15262607643829       -0.19509152272073
C            1.96946016983468        1.21883788625618       -0.49510072685040
C            0.60669819594407        1.09987170027480       -0.31944970267577
O            4.15581597072588        0.30476827743873       -0.38521560224033
H           -4.45084132260109        0.64087735367270       -0.19014452371535
H           -3.72149085925327        0.01393361400540        1.30232620207218
H           -3.92470239713561       -1.04607474085111       -0.10581846904962
H           -1.57569534631531       -0.97489805411882        1.02168584299111
H            0.49486993833459       -2.07354223272743        0.85572228945967
H            2.92438122545597       -1.86488407435634        0.52665738185222
H            2.40522991324939        2.13412493532057       -0.86211423969069
H           -0.04947400169406        1.91878849068644       -0.56002481456227
H            4.60607859087152       -0.51673257627096       -0.16394140836858
20
 energy: -32.781888236889 gnorm: 0.010573490485 xtb: 6.6.0 (conda-forge)
C           -3.69767449756002       -0.05498228672019        0.22195652105080
C           -2.34263518642038        0.42009877214270       -0.27288367157138
O           -2.19403440780271        1.25139780341123       -1.14299190133031
N           -1.31508590622825       -0.21794355530322        0.36606536191177
C            0.06387777365068       -0.06955824181773        0.14918386133272
C            0.89877666928488       -1.13338714901738        0.47517982300156
C            2.26561440091570       -1.03041980858345        0.30028431028528
C            2.81813825120688        0.14422255080853       -0.19523021959495
C            1.98550146387651        1.21244310442155       -0.51301723958632
C            0.61950307672331        1.10809274399280       -0.34517880181506
O            4.16346875676210        0.28365571113999       -0.37695948258322
H           -4.47738271639950        0.57862707650958       -0.18985108368532
H           -3.74213926631100       -0.02266537758328        1.30826397939526
H           -3.87071747759697       -1.08036969857688       -0.10943539169514
H           -1.56593737594022       -0.98684979212421        0.97595363436115
H            0.47528638018007       -2.04875055363221        0.86382384937749
H            2.90644008370903       -1.86663172579378        0.54842255595193
H            2.43000892396411        2.12024333549742       -0.88764155841508
H           -0.02631585098708        1.93122726257238       -0.60154672206840
H            4.60520690497281       -0.53855017134386       -0.14139782432289
20
 energy: -32.782119403187 gnorm: 0.005316546841 xtb: 6.6.0 (conda-forge)
C           -3.69593238172539       -0.06511209689888        0.22424022490595
C           -2.34977805573527        0.44223376976322       -0.25021204764373
O           -2.21149976094131        1.30778413597551       -1.08314247534607
N           -1.31594236037122       -0.21279138215908        0.35901640238403
C            0.06139478195633       -0.06195582510712        0.14152752406762
C            0.89451010289029       -1.12539170067897        0.47563047431265
C            2.26118465309932       -1.02990357685591        0.30534305694610
C            2.82070286065481        0.13885595198122       -0.19628464169708
C            1.99102482930652        1.20492168300121       -0.52644378829721
C            0.62380141251813        1.10723601947279       -0.36245926695999
O            4.16474578899866        0.27719581764268       -0.37295617239100
H           -4.48265514292631        0.55160212674108       -0.19344682070158
H           -3.75745271471287       -0.04285786039341        1.31054565270178
H           -3.84080229615170       -1.08882202887808       -0.11517917937795
H           -1.55988191324928       -0.99992037538811        0.94541737484853
H            0.46838244029657       -2.03770487199753        0.86835796559000
H            2.89727947430115       -1.86683930518009        0.56231142207898
H            2.43721283482273        2.10876118578932       -0.90784565936214
H           -0.01489030472623        1.93292970566123       -0.62904178687519
H            4.60849575169499       -0.54032137249110       -0.12237825918380
20
 energy: -32.782165801438 gnorm: 0.022333173095 xtb: 6.6.0 (conda-forge)
C           -3.69299180512414       -0.08060071446718        0.22428911700368
C           -2.35580629680882        0.47952870679511       -0.21777683068207
O           -2.22919422616911        1.41900489815034       -0.98495169713811
N           -1.31687343198581       -0.20988006132864        0.34552346294206
C            0.05907337759791       -0.05526098837691        0.13286597471324
C            0.89001043333101       -1.11659897016164        0.48219925555413
C            2.25676370201642       -1.02890649784794        0.31709469004937
C            2.82246051089221        0.13119396747838       -0.19842864474959
C            1.99480561614009        1.19292128059482       -0.54852380419071
C            0.62677973942712        1.10329053213458       -0.38716019649686
O            4.16486273405500        0.26750791053561       -0.37197771884287
H           -4.49505281854471        0.51476533393188       -0.19763907030060
H           -3.77395149403401       -0.07317849497907        1.31016656825784
H           -3.79275191536119       -1.10642611121785       -0.12765164770965
H           -1.55593209183218       -1.02483116012724        0.89553227496994
H            0.46095967686437       -2.02364845800324        0.88534812297197
H            2.88781430135650       -1.86522442800147        0.58816045631575
H            2.44254635538516        2.08959413044121       -0.94542838663145
H           -0.00508350035656        1.92886515005675       -0.67048794868216
H            4.61146113315064       -0.54221602560753       -0.09815397735402
20
 energy: -32.782417123916 gnorm: 0.005651930632 xtb: 6.6.0 (conda-forge)
C           -3.69263611452972       -0.06958866935598        0.22116828870688
C           -2.34932578889367        0.47502477011150       -0.21487117385746
O           -2.21551379478300        1.40035313484409       -0.98234375341322
N           -1.31738498702895       -0.21875426585156        0.34910261618747
C            0.05893056627987       -0.06483906188011        0.13756788236262
C            0.89377100841333       -1.12356340444275        0.48331453216447
C            2.26013993897014       -1.02990356784404        0.31548234377692
C            2.82038648265504        0.13242130436422       -0.20031965453834
C            1.98719824935119        1.19083977266611       -0.54785107400401
C            0.62069571242229        1.09596951028003       -0.38278551292502
O            4.16057911606898        0.27705047699426       -0.37678369464327
H           -4.48626456520649        0.53579287274993       -0.20428458657011
H           -3.77562208936423       -0.06156637942003        1.30610141030129
H           -3.80030890398863       -1.09331428888590       -0.13084230383330
H           -1.56060743326858       -1.02922174064392        0.89923204070368
H            0.46967797564462       -2.03335780119060        0.88587589637015
H            2.89448921711109       -1.86390294706235        0.58490557605415
H            2.43019004299114        2.08917548137398       -0.94609460062111
H           -0.01426082899400        1.91902722298646       -0.66361342822923
H            4.61576619614950       -0.52774241979335       -0.09996080399268
20
 energy: -32.782552119927 gnorm: 0.005388609162 xtb: 6.6.0 (conda-forge)
C           -3.69366242247470       -0.06712754191430        0.21850866422434
C           -2.34730249619974        0.48711860984817       -0.19682267041453
O           -2.21203427434989        1.43788047970267       -0.93150180143336
N           -1.31780205799135       -0.22850632715721        0.34413506383782
C            0.05884000616544       -0.07181096946327        0.13684570790054
C            0.89652870067656       -1.12596339580420        0.48965681798695
C            2.26319317237472       -1.02904548852166        0.32150188956029
C            2.82012475928250        0.13120224419847       -0.20277688528385
C            1.98305245548461        1.18453725270262       -0.55807328761539
C            0.61707279170122        1.08742431072580       -0.39162395416782
O            4.15918840525152        0.28075489082127       -0.38142915973264
H           -4.48166221844672        0.54109326874850       -0.21117433478931
H           -3.78768222292995       -0.06528444176255        1.30263866255789
H           -3.79494181947515       -1.08686693960601       -0.14133953130202
H           -1.56389052886072       -1.05194301689884        0.87537473000480
H            0.47568075759672       -2.03492637539409        0.89826493742441
H            2.89948352195433       -1.85952345511835        0.59742662112921
H            2.42301348546439        2.08080592187297       -0.96461974484160
H           -0.01974247354142        1.90676902851425       -0.67775184641396
H            4.62244245831756       -0.51668805549428       -0.09423987863188
20
 energy: -32.782693745717 gnorm: 0.012516298725 xtb: 6.6.0 (conda-forge)
C           -3.69792806381744       -0.06414973438810        0.21338735204851
C           -2.34424807790181        0.51428917112704       -0.15815811810012
O           -2.20830271572841        1.52766513665628       -0.81405066284444
N           -1.31808461015273       -0.24896115305752        0.32677867064418
C            0.05981171233139       -0.08623328678706        0.13152698639380
C            0.90267497356216       -1.12932102576265        0.50520941969222
C            2.27055048625866       -1.02556299983958        0.33728399778149
C            2.82065763044852        0.12913787216559       -0.20619407597620
C            1.97738784551613        1.17229679590628       -0.57949750414658
C            0.61202141641364        1.06995374312969       -0.41374445070051
O            4.15900754963982        0.28538018080233       -0.39053694169546
H           -4.48046019467045        0.54854849376356       -0.22396874448189
H           -3.81475722394923       -0.07678743013468        1.29568705948749
H           -3.78124817215939       -1.08008287264643       -0.16408844084919
H           -1.57135146144258       -1.09644804846083        0.81794412986852
H            0.48742844001900       -2.03481562648903        0.92804660015319
H            2.91157325363677       -1.84767185450491        0.62876684785687
H            2.41336258007162        2.06338320304454       -1.00199896903131
H           -0.03076753335682        1.87995352584948       -0.71157203849051
H            4.63257216528107       -0.50067409037400       -0.08782111761020
20
 energy: -32.782782888004 gnorm: 0.003223832139 xtb: 6.6.0 (conda-forge)
C           -3.70065779725337       -0.05809962438740        0.21289275615686
C           -2.34144121902414        0.50230405347840       -0.16392765043428
O           -2.20191616052832        1.50697769571960       -0.82284709121153
N           -1.31741837984570       -0.25675757855540        0.32377646852952
C            0.06158067510197       -0.09285741545493        0.13156101159079
C            0.90652508948008       -1.13302470629269        0.50686963059134
C            2.27485708052091       -1.02365475383795        0.33839688578627
C            2.82039898879012        0.13274335983820       -0.20495904215582
C            1.97531306539236        1.17510705696683       -0.57577215841876
C            0.61035290835147        1.06738452429328       -0.41054237668902
O            4.16005435501870        0.28974699317150       -0.39199977448313
H           -4.47348325970194        0.56828326438950       -0.22158268157829
H           -3.81307429903149       -0.06944663324756        1.29483978743167
H           -3.80410904395038       -1.07087290839288       -0.16433968314905
H           -1.57448313208867       -1.09885969192134        0.81967327710111
H            0.49369967325071       -2.03884873587863        0.93048145912063
H            2.91972770873740       -1.84304262802517        0.62935638816062
H            2.41034241322473        2.06759250750928       -0.99549906574748
H           -0.03795583970760        1.87414996566723       -0.70541276685230
H            4.63158717326309       -0.49892474503987       -0.09796537374926
20
 energy: -32.782833305123 gnorm: 0.002698151100 xtb: 6.6.0 (conda-forge)
C           -3.70160841436065       -0.05857465632524        0.21439038499065
C           -2.34205268528545        0.51013540658505       -0.15401317159761
O           -2.20594709781189        1.52977228292611       -0.78956014835995
N           -1.31704591638994       -0.26216923527727        0.31280252264364
C            0.06230750136169       -0.09480992859368        0.12616309732547
C            0.90776085834926       -1.13137426603247        0.50952694875425
C            2.27628714177797       -1.02060309999778        0.34410492657680
C            2.82111116494569        0.13298820225118       -0.20520626038635
C            1.97634749615476        1.17314824061612       -0.58202367610125
C            0.61148530577317        1.06415265020555       -0.41882084243560
O            4.16172347301594        0.28846359217985       -0.39117192484473
H           -4.47491248710893        0.56898612361756       -0.21938715426766
H           -3.81981532399580       -0.07492515676816        1.29583309467387
H           -3.80217495558595       -1.07153324088958       -0.16843606360696
H           -1.57447421177332       -1.11296519600264        0.79612310071872
H            0.49551395772351       -2.03490589096674        0.93796749271217
H            2.92228729987634       -1.83677645470021        0.64184868537305
H            2.41171896236720        2.06418728102118       -1.00423906594307
H           -0.03861228344978        1.86804099528619       -0.71874523833006
H            4.63000021441613       -0.50133764913503       -0.09415670789551
20
 energy: -32.782868904239 gnorm: 0.008744404750 xtb: 6.6.0 (conda-forge)
C           -3.70163302218674       -0.06037280053278        0.21824007311035
C           -2.34414378006973        0.52076399921563       -0.13619461696252
O           -2.21431652295026        1.57774645664908       -0.71768973353956
N           -1.31685632497127       -0.27545931363153        0.28531544994862
C            0.06272612586338       -0.09894942250684        0.11170882834721
C            0.90956700142217       -1.12731853853344        0.51368796154388
C            2.27819013377936       -1.01392626001147        0.35670508686510
C            2.82258361047315        0.13384635001405       -0.20391803897871
C            1.97810795899225        1.16852393183447       -0.59569531451564
C            0.61289807103430        1.05632421000861       -0.44029495868741
O            4.16463923848079        0.28654855058234       -0.38532849843351
H           -4.47467351134646        0.57218585541584       -0.20921009426428
H           -3.82559609076352       -0.08994312359347        1.29890998349736
H           -3.80336283072107       -1.06968396052159       -0.17519774052393
H           -1.57252575823359       -1.13790035274584        0.74635794733274
H            0.49803004334400       -2.02639834397860        0.95102598474025
H            2.92577685327712       -1.82335758248347        0.66893192484001
H            2.41382651253230        2.05681475342773       -1.02317359435099
H           -0.03898991317724        1.85545897375106       -0.74954868163629
H            4.62565220522096       -0.50500338235978       -0.08163196833284
20
 energy: -32.782908864980 gnorm: 0.002475844063 xtb: 6.6.0 (conda-forge)
C           -3.70004901226618       -0.06286706784881        0.22170418758981
C           -2.34596373784668        0.52001866638320       -0.14061436857517
O           -2.21732670450367        1.56715130949859       -0.73098671591794
N           -1.31693027801433       -0.27017114909541        0.28341797256342
C            0.06207470789517       -0.09391838062626        0.10904477321687
C            0.90677191253981       -1.12441620934610        0.50962712176486
C            2.27513358328369       -1.01371578553801        0.35520233306071
C            2.82298885065960        0.13394368705834       -0.20245384757535
C            1.98107666485805        1.17027046160722       -0.59410298554541
C            0.61514924700302        1.06009180004273       -0.44125930247981
O            4.16554584756604        0.28368377067523       -0.37954052626820
H           -4.47872760035883        0.56619556771765       -0.20147220893609
H           -3.81898877089767       -0.09206492657992        1.30309949675756
H           -3.80160599743121       -1.07433261141592       -0.17063393004327
H           -1.56921269187249       -1.13225305767852        0.74745848955283
H            0.49258317132664       -2.02328466341479        0.94453592547369
H            2.92063878626906       -1.82438339518598        0.66721131083839
H            2.41836366661265        2.05898201323481       -1.01920048983797
H           -0.03388075881005        1.86158226550042       -0.75079594260194
H            4.62225911398731       -0.51061229498851       -0.07724129303713
20
 energy: -32.782927437365 gnorm: 0.001772202613 xtb: 6.6.0 (conda-forge)
C           -3.70000819278022       -0.06180964734126        0.22362958127111
C           -2.34660528260351        0.52175930595686       -0.13650504934615
O           -2.21686620608778        1.57502165161490       -0.71564585730277
N           -1.31738644796183       -0.27402775792279        0.27650674747123
C            0.06160301544559       -0.09562836003681        0.10484887051499
C            0.90665651539172       -1.12455856905497        0.50957018732706