      -----------------------------------------------------------      
     |                   =====================                   |     
     |                           x T B                           |     
     |                   =====================                   |     
     |                         S. Grimme                         |     
     |          Mulliken Center for Theoretical Chemistry        |     
     |                    University of Bonn                     |     
      -----------------------------------------------------------      

   * xtb version 6.6.0 (conda-forge) compiled by 'runner@Mac-1676020848589.local' on 2023-02-10

   xtb is free software: you can redistribute it and/or modify it under
   the terms of the GNU Lesser General Public License as published by
   the Free Software Foundation, either version 3 of the License, or
   (at your option) any later version.
   
   xtb is distributed in the hope that it will be useful,
   but WITHOUT ANY WARRANTY; without even the implied warranty of
   MERCHANTABILITY or FITNESS FOR A PARTICULAR PURPOSE.  See the
   GNU Lesser General Public License for more details.
   
   Cite this work as:
   * C. Bannwarth, E. Caldeweyher, S. Ehlert, A. Hansen, P. Pracht,
     J. Seibert, S. Spicher, S. Grimme, WIREs Comput. Mol. Sci., 2020, 11,
     e01493. DOI: 10.1002/wcms.1493
   
   for GFN2-xTB:
   * C. Bannwarth, S. Ehlert and S. Grimme., J. Chem. Theory Comput., 2019,
     15, 1652-1671. DOI: 10.1021/acs.jctc.8b01176
   for GFN1-xTB:
   * S. Grimme, C. Bannwarth, P. Shushkov, J. Chem. Theory Comput., 2017,
     13, 1989-2009. DOI: 10.1021/acs.jctc.7b00118
   for GFN0-xTB:
   * P. Pracht, E. Caldeweyher, S. Ehlert, S. Grimme, ChemRxiv, 2019, preprint.
     DOI: 10.26434/chemrxiv.8326202.v1
   for GFN-FF:
   * S. Spicher and S. Grimme, Angew. Chem. Int. Ed., 2020, 59, 15665-15673.
     DOI: 10.1002/anie.202004239
   
   for ALPB and GBSA implicit solvation:
   * S. Ehlert, M. Stahn, S. Spicher, S. Grimme, J. Chem. Theory Comput.,
     2021, 17, 4250-4261. DOI: 10.1021/acs.jctc.1c00471
   
   for DFT-D4:
   * E. Caldeweyher, C. Bannwarth and S. Grimme, J. Chem. Phys., 2017,
     147, 034112. DOI: 10.1063/1.4993215
   * E. Caldeweyher, S. Ehlert, A. Hansen, H. Neugebauer, S. Spicher,
     C. Bannwarth and S. Grimme, J. Chem. Phys., 2019, 150, 154122.
     DOI: 10.1063/1.5090222
   * E. Caldeweyher, J.-M. Mewes, S. Ehlert and S. Grimme, Phys. Chem. Chem. Phys.
     2020, 22, 8499-8512. DOI: 10.1039/D0CP00502A
   
   for sTDA-xTB:
   * S. Grimme and C. Bannwarth, J. Chem. Phys., 2016, 145, 054103.
     DOI: 10.1063/1.4959605
   
   in the mass-spec context:
   * V. Asgeirsson, C. Bauer and S. Grimme, Chem. Sci., 2017, 8, 4879.
     DOI: 10.1039/c7sc00601b
   * J. Koopman and S. Grimme, ACS Omega 2019, 4, 12, 15120-15133.
     DOI: 10.1021/acsomega.9b02011
   
   for metadynamics refer to:
   * S. Grimme, J. Chem. Theory Comput., 2019, 155, 2847-2862
     DOI: 10.1021/acs.jctc.9b00143
   
   for SPH calculations refer to:
   * S. Spicher and S. Grimme, J. Chem. Theory Comput., 2021, 17, 1701-1714
     DOI: 10.1021/acs.jctc.0c01306
   
   with help from (in alphabetical order)
   P. Atkinson, C. Bannwarth, F. Bohle, G. Brandenburg, E. Caldeweyher
   M. Checinski, S. Dohm, S. Ehlert, S. Ehrlich, I. Gerasimov, C. Hölzer
   A. Katbashev, J. Koopman, C. Lavigne, S. Lehtola, F. März, M. Müller,
   F. Musil, H. Neugebauer, J. Pisarek, C. Plett, P. Pracht, F. Pultar,
   J. Seibert, P. Shushkov, S. Spicher, M. Stahn, M. Steiner, T. Strunk,
   J. Stückrath, T. Rose, and J. Unsleber
   
 * started run on 2024/10/22 at 11:56:20.213     

           -------------------------------------------------
          |                Calculation Setup                |
           -------------------------------------------------

          program call               : xtb acetonitrile.xyz --chrg 1 --gfn2 --opt --alpb water
          coordinate file            : acetonitrile.xyz
          omp threads                :                     8

   ID    Z sym.   atoms
    1    6 C      1, 2
    2    7 N      3
    3    1 H      4-6

           -------------------------------------------------
          |                 G F N 2 - x T B                 |
           -------------------------------------------------

        Reference                      10.1021/acs.jctc.8b01176
      * Hamiltonian:
        H0-scaling (s, p, d)           1.850000    2.230000    2.230000
        zeta-weighting                 0.500000
      * Dispersion:
        s8                             2.700000
        a1                             0.520000
        a2                             5.000000
        s9                             5.000000
      * Repulsion:
        kExp                           1.500000    1.000000
        rExp                           1.000000
      * Coulomb:
        alpha                          2.000000
        third order                    shell-resolved
        anisotropic                    true
        a3                             3.000000
        a5                             4.000000
        cn-shift                       1.200000
        cn-exp                         4.000000
        max-rad                        5.000000

      * Solvation model:               ALPB
        Solvent                        water
        Parameter file                 internal GFN2-xTB/ALPB
        Dielectric constant                8.0200E+01
        Reference state                gsolv [1 M gas/solution]
        Free energy shift                  1.0808E-03 Eh       6.7819E-01 kcal/mol
        Temperature                        2.9815E+02 K
        Density                            1.0000E+00 kg/L
        Solvent mass                       1.8000E+01 g/mol
        Interaction kernel             P16
        Born radius scaling (c1)           1.4744E+00
        Born radii integrator          GBOBC
        Born offset                        0.0000E+00 a0       0.0000E+00 AA
        H-bond correction              true
        Ion screening                  false
        Surface tension                    1.0000E-05 Eh       1.5569E+01 dyn/cm
        Grid points                               230 per atom

          ...................................................
          :                      SETUP                      :
          :.................................................:
          :  # basis functions                  15          :
          :  # atomic orbitals                  15          :
          :  # shells                            9          :
          :  # electrons                        15          :
          :  max. iterations                   250          :
          :  Hamiltonian                  GFN2-xTB          :
          :  restarted?                      false          :
          :  GBSA solvation                   true          :
          :  PC potential                    false          :
          :  electronic temp.          300.0000000     K    :
          :  accuracy                    1.0000000          :
          :  -> integral cutoff          0.2500000E+02      :
          :  -> integral neglect         0.1000000E-07      :
          :  -> SCF convergence          0.1000000E-05 Eh   :
          :  -> wf. convergence          0.1000000E-03 e    :
          :  Broyden damping             0.4000000          :
          ...................................................

 iter      E             dE          RMSdq      gap      omega  full diag
   1     -8.2845328 -0.828453E+01  0.729E+00    6.43       0.0  T
   2     -8.2465328  0.380000E-01  0.620E+00    5.84       1.0  T
   3     -8.3591248 -0.112592E+00  0.321E+00    6.45       1.0  T
   4     -8.3501807  0.894412E-02  0.217E+00    6.04       1.0  T
   5     -8.3686954 -0.185146E-01  0.723E-01    6.19       1.0  T
   6     -8.3697629 -0.106754E-02  0.429E-01    6.22       1.0  T
   7     -8.3689576  0.805306E-03  0.637E-01    6.23       1.0  T
   8     -8.3703637 -0.140613E-02  0.125E-01    6.22       1.0  T
   9     -8.3703725 -0.879816E-05  0.122E-01    6.22       1.0  T
  10     -8.3703763 -0.375768E-05  0.117E-01    6.22       1.0  T
  11     -8.3704352 -0.589093E-04  0.197E-03    6.22      20.7  T
  12     -8.3704348  0.383720E-06  0.940E-03    6.22       4.3  T
  13     -8.3704350 -0.161101E-06  0.745E-03    6.22       5.5  T
  14     -8.3704352 -0.232627E-06  0.344E-04    6.22     118.8  T
  15     -8.3704352  0.342176E-08  0.982E-04    6.22      41.6  T

   *** convergence criteria satisfied after 15 iterations ***

         #    Occupation            Energy/Eh            Energy/eV
      -------------------------------------------------------------
         1        2.0000           -0.7340779             -19.9753
         2        2.0000           -0.6989951             -19.0206
         3        2.0000           -0.6018640             -16.3776
         4        2.0000           -0.5920108             -16.1094
         5        2.0000           -0.5920083             -16.1094
         6        1.7263           -0.5251288             -14.2895
         7        1.7258           -0.5251262             -14.2894
         8        1.5479           -0.5243841             -14.2692 (HOMO)
         9                         -0.2958142              -8.0495 (LUMO)
        10                         -0.2958138              -8.0495
        11                          0.0239645               0.6521
        12                          0.1017347               2.7683
        13                          0.1601381               4.3576
       ...                                ...                  ...
        15                          0.9696141              26.3845
      -------------------------------------------------------------
                  HL-Gap            0.2285698 Eh            6.2197 eV
             Fermi-level           -0.4671503 Eh          -12.7118 eV

 SCC (total)                   0 d,  0 h,  0 min,  0.006 sec
 SCC setup                      ...        0 min,  0.001 sec ( 14.320%)
 Dispersion                     ...        0 min,  0.000 sec (  0.958%)
 classical contributions        ...        0 min,  0.000 sec (  0.880%)
 integral evaluation            ...        0 min,  0.000 sec (  3.676%)
 iterations                     ...        0 min,  0.004 sec ( 69.378%)
 molecular gradient             ...        0 min,  0.001 sec (  8.711%)
 printout                       ...        0 min,  0.000 sec (  1.775%)

         :::::::::::::::::::::::::::::::::::::::::::::::::::::
         ::                     SUMMARY                     ::
         :::::::::::::::::::::::::::::::::::::::::::::::::::::
         :: total energy              -8.212273258473 Eh    ::
         :: total w/o Gsasa/hb        -8.196432514287 Eh    ::
         :: gradient norm              0.055130593723 Eh/a0 ::
         :: HOMO-LUMO gap              6.219701908026 eV    ::
         ::.................................................::
         :: SCC energy                -8.370435189721 Eh    ::
         :: -> isotropic ES            0.138453649872 Eh    ::
         :: -> anisotropic ES         -0.021460526243 Eh    ::
         :: -> anisotropic XC          0.017710418518 Eh    ::
         :: -> dispersion             -0.001238674820 Eh    ::
         :: -> Gsolv                  -0.124726509976 Eh    ::
         ::    -> Gelec               -0.108885765790 Eh    ::
         ::    -> Gsasa               -0.005528627431 Eh    ::
         ::    -> Ghb                 -0.011392876453 Eh    ::
         ::    -> Gshift               0.001080759698 Eh    ::
         :: repulsion energy           0.158161838018 Eh    ::
         :: add. restraining           0.000000000000 Eh    ::
         :: total charge               1.000000000896 e     ::
         :::::::::::::::::::::::::::::::::::::::::::::::::::::

      ----------------------------------------------------------- 
     |                   =====================                   |
     |                        A N C O P T                        |
     |                   =====================                   |
     |               Approximate Normal Coordinate               |
     |                Rational Function Optimizer                |
      ----------------------------------------------------------- 

          ...................................................
          :                      SETUP                      :
          :.................................................:
          :   optimization level            normal          :
          :   max. optcycles                   200          :
          :   ANC micro-cycles                  20          :
          :   degrees of freedom                12          :
          :.................................................:
          :   RF solver                   davidson          :
          :   write xtbopt.log                true          :
          :   linear?                        false          :
          :   energy convergence         0.5000000E-05 Eh   :
          :   grad. convergence          0.1000000E-02 Eh/α :
          :   maxmium RF displ.          1.0000000          :
          :   Hlow (freq-cutoff)         0.1000000E-01      :
          :   Hmax (freq-cutoff)         5.0000000          :
          :   S6 in model hess.         20.0000000          :
          ...................................................

generating ANC from model Hessian ...
Using Lindh-Hessian (1995)
 Shifting diagonal of input Hessian by    5.7590604752133564E-003
 Lowest  eigenvalues of input Hessian
    0.000000    0.000000    0.000000    0.000000    0.000000    0.000000
    0.010000    0.061215    0.093007    0.101459    0.106860    0.111085
    0.349056    0.397764    0.930741    1.036831    1.100009    2.464158
 Highest eigenvalues
    0.349056    0.397764    0.930741    1.036831    1.100009    2.464158


........................................................................
.............................. CYCLE    1 ..............................
........................................................................

 iter      E             dE          RMSdq      gap      omega  full diag
   1     -8.3704352 -0.837044E+01  0.613E-05    6.22       0.0  T
   2     -8.3704352  0.131850E-08  0.531E-04    6.22      76.9  T
   3     -8.3704352 -0.132670E-08  0.396E-05    6.22    1031.3  T
     SCC iter.                  ...        0 min,  0.001 sec
     gradient                   ...        0 min,  0.000 sec
 * total energy  :    -8.2122733 Eh     change       -0.3957647E-08 Eh
   gradient norm :     0.0551224 Eh/α   predicted     0.0000000E+00 (-100.00%)
   displ. norm   :     0.1178653 α      lambda       -0.5006177E-02
   maximum displ.:     0.0788980 α      in ANC's #7, #5, #9, ...

........................................................................
.............................. CYCLE    2 ..............................
........................................................................

 iter      E             dE          RMSdq      gap      omega  full diag
   1     -8.3898640 -0.838986E+01  0.541E-01    6.41       0.0  T
   2     -8.3689740  0.208900E-01  0.212E+00    6.32       1.0  T
   3     -8.3905274 -0.215534E-01  0.261E-01    6.40       1.0  T
   4     -8.3905970 -0.696524E-04  0.189E-01    6.43       1.0  T
   5     -8.3907506 -0.153598E-03  0.252E-02    6.41       1.6  T
   6     -8.3907338  0.168164E-04  0.643E-02    6.41       1.0  T
   7     -8.3907440 -0.101617E-04  0.447E-02    6.42       1.0  T
   8     -8.3907501 -0.615924E-05  0.191E-02    6.42       2.1  T
   9     -8.3907510 -0.887199E-06  0.118E-02    6.42       3.5  T
  10     -8.3907514 -0.415241E-06  0.573E-03    6.42       7.1  T
  11     -8.3907516 -0.125600E-06  0.962E-04    6.42      42.4  T
  12     -8.3907516 -0.267837E-08  0.493E-04    6.42      82.8  T
     SCC iter.                  ...        0 min,  0.001 sec
     gradient                   ...        0 min,  0.000 sec
 * total energy  :    -8.2155260 Eh     change       -0.3252734E-02 Eh
   gradient norm :     0.0330381 Eh/α   predicted    -0.2537861E-02 ( -21.98%)
   displ. norm   :     0.0474358 α      lambda       -0.1058917E-02
   maximum displ.:     0.0355091 α      in ANC's #7, #9, #12, ...

........................................................................
.............................. CYCLE    3 ..............................
........................................................................

 iter      E             dE          RMSdq      gap      omega  full diag
   1     -8.3905694 -0.839057E+01  0.931E-01    6.39       0.0  T
   2     -8.3588744  0.316949E-01  0.275E+00    6.26       1.0  T
   3     -8.3936172 -0.347428E-01  0.293E-01    6.39       1.0  T
   4     -8.3938644 -0.247167E-03  0.936E-02    6.38       1.0  T
   5     -8.3938413  0.230955E-04  0.125E-01    6.39       1.0  T
   6     -8.3938956 -0.543046E-04  0.304E-02    6.39       1.3  T
   7     -8.3938985 -0.287419E-05  0.116E-02    6.39       3.5  T
   8     -8.3938989 -0.373848E-06  0.699E-03    6.39       5.8  T
   9     -8.3938990 -0.174001E-06  0.830E-04    6.39      49.2  T
  10     -8.3938990 -0.200723E-08  0.164E-04    6.39     249.3  T
     SCC iter.                  ...        0 min,  0.002 sec
     gradient                   ...        0 min,  0.000 sec
 * total energy  :    -8.2160067 Eh     change       -0.4806865E-03 Eh
   gradient norm :     0.0039553 Eh/α   predicted    -0.5306519E-03 (  10.39%)
   displ. norm   :     0.0201840 α      lambda       -0.6587085E-04
   maximum displ.:     0.0188631 α      in ANC's #5, #7, #3, ...

........................................................................
.............................. CYCLE    4 ..............................
........................................................................

 iter      E             dE          RMSdq      gap      omega  full diag
   1     -8.3918410 -0.839184E+01  0.260E-01    6.37       0.0  T
   2     -8.3800855  0.117556E-01  0.164E+00    6.34       1.0  T
   3     -8.3919882 -0.119028E-01  0.155E-01    6.37       1.0  T
   4     -8.3920790 -0.907881E-04  0.419E-02    6.37       1.0  T
   5     -8.3920844 -0.541824E-05  0.664E-03    6.37       6.1  T
   6     -8.3920844  0.161659E-07  0.354E-03    6.37      11.5  T
   7     -8.3920844  0.159568E-08  0.309E-03    6.37      13.2  T
   8     -8.3920845 -0.396974E-07  0.275E-04    6.37     148.5  T
   9     -8.3920845 -0.702780E-10  0.856E-05    6.37     477.0  T
     SCC iter.                  ...        0 min,  0.001 sec
     gradient                   ...        0 min,  0.000 sec
 * total energy  :    -8.2160471 Eh     change       -0.4041279E-04 Eh
   gradient norm :     0.0014687 Eh/α   predicted    -0.3294882E-04 ( -18.47%)
   displ. norm   :     0.0146502 α      lambda       -0.9593285E-05
   maximum displ.:     0.0137479 α      in ANC's #5, #9, #3, ...

........................................................................
.............................. CYCLE    5 ..............................
........................................................................

 iter      E             dE          RMSdq      gap      omega  full diag
   1     -8.3911738 -0.839117E+01  0.279E-01    6.36       0.0  T
   2     -8.3779427  0.132310E-01  0.174E+00    6.33       1.0  T
   3     -8.3913821 -0.134394E-01  0.136E-01    6.36       1.0  T
   4     -8.3914509 -0.688269E-04  0.394E-02    6.36       1.0  T
   5     -8.3914554 -0.443720E-05  0.151E-02    6.36       2.7  T
   6     -8.3914560 -0.625569E-06  0.202E-03    6.36      20.2  T
   7     -8.3914560  0.108889E-08  0.157E-03    6.36      26.0  T
   8     -8.3914560 -0.105895E-07  0.153E-04    6.36     266.1  T
   9     -8.3914560 -0.279687E-10  0.531E-05    6.36     768.5  T
     SCC iter.                  ...        0 min,  0.002 sec
     gradient                   ...        0 min,  0.000 sec
 * total energy  :    -8.2160518 Eh     change       -0.4734983E-05 Eh
   gradient norm :     0.0007056 Eh/α   predicted    -0.4798214E-05 (   1.34%)
   displ. norm   :     0.0056545 α      lambda       -0.1613737E-05
   maximum displ.:     0.0033830 α      in ANC's #5, #1, #3, ...

   *** GEOMETRY OPTIMIZATION CONVERGED AFTER 5 ITERATIONS ***

------------------------------------------------------------------------
 total energy gain   :        -0.0037786 Eh       -2.3711 kcal/mol
 total RMSD          :         0.0574735 a0        0.0304 Å
 total power (kW/mol):        -1.9841281 (step) -751.4526 (real)
------------------------------------------------------------------------

 ANCopt (total)                0 d,  0 h,  0 min,  0.013 sec
 optimizer setup                ...        0 min,  0.000 sec (  0.917%)
 model hessian                  ...        0 min,  0.001 sec (  9.940%)
 ANC generation                 ...        0 min,  0.000 sec (  1.090%)
 coordinate transformation      ...        0 min,  0.000 sec (  0.182%)
 single point calculation       ...        0 min,  0.010 sec ( 75.258%)
 optimization log               ...        0 min,  0.000 sec (  2.469%)
 hessian update                 ...        0 min,  0.000 sec (  1.180%)
 rational function              ...        0 min,  0.001 sec (  5.783%)

================
 final structure:
================
6
 xtb: 6.6.0 (conda-forge)
C           -0.44496465938081        0.05219975425267       -0.08697234007632
C            0.90827222663559       -0.10879341388286        0.17373064183187
N            2.03238790752655       -0.23666688145041        0.39517378328330
H           -0.78256916789853       -0.65284205159068       -0.87006708794637
H           -1.04941230228117       -0.13406437940874        0.82087610493132
H           -0.66381400460163        1.08006697208001       -0.43274110202381

 Bond Distances (Angstroems)
 ---------------------------
C1-C2=1.3875         C1-H4=1.1065         C1-H5=1.1065         C1-H6=1.1063         C2-C1=1.3875         C2-N3=1.1528         
N3-C2=1.1528         H4-C1=1.1065         H5-C1=1.1065         H6-C1=1.1063         
 C  H  Rav=1.1064 sigma=0.0001  Rmin=1.1063  Rmax=1.1065     3
 C  C  Rav=1.3875 sigma=0.0000  Rmin=1.3875  Rmax=1.3875     1
 N  C  Rav=1.1528 sigma=0.0000  Rmin=1.1528  Rmax=1.1528     1

 selected bond angles (degree)
 --------------------
H4-C1-C2=110.89                H5-C1-C2=111.05                H5-C1-H4=107.86                H6-C1-C2=111.07                
H6-C1-H4=108.09                H6-C1-H5=107.74                N3-C2-C1=179.62                

 selected dihedral angles (degree)
 ---------------------------------
N3-C2-C1-H4=175.94            N3-C2-C1-H5=295.86            N3-C2-C1-H6= 55.73            
           -------------------------------------------------
          |                Final Singlepoint                |
           -------------------------------------------------

          ...................................................
          :                      SETUP                      :
          :.................................................:
          :  # basis functions                  15          :
          :  # atomic orbitals                  15          :
          :  # shells                            9          :
          :  # electrons                        15          :
          :  max. iterations                   250          :
          :  Hamiltonian                  GFN2-xTB          :
          :  restarted?                      false          :
          :  GBSA solvation                   true          :
          :  PC potential                    false          :
          :  electronic temp.          300.0000000     K    :
          :  accuracy                    1.0000000          :
          :  -> integral cutoff          0.2500000E+02      :
          :  -> integral neglect         0.1000000E-07      :
          :  -> SCF convergence          0.1000000E-05 Eh   :
          :  -> wf. convergence          0.1000000E-03 e    :
          :  Broyden damping             0.4000000          :
          ...................................................

 iter      E             dE          RMSdq      gap      omega  full diag
   1     -8.3914560 -0.839146E+01  0.274E-05    6.36       0.0  T
   2     -8.3914560  0.113573E-09  0.161E-04    6.36     254.3  T
   3     -8.3914560 -0.110642E-09  0.357E-05    6.36    1145.1  T

   *** convergence criteria satisfied after 3 iterations ***

         #    Occupation            Energy/Eh            Energy/eV
      -------------------------------------------------------------
         1        2.0000           -0.7361124             -20.0306
         2        2.0000           -0.7060539             -19.2127
         3        2.0000           -0.6030549             -16.4100
         4        2.0000           -0.5956322             -16.2080
         5        2.0000           -0.5955881             -16.2068
         6        1.7284           -0.5221774             -14.2092
         7        1.7088           -0.5220851             -14.2067
         8        1.5628           -0.5214798             -14.1902 (HOMO)
         9                         -0.2877759              -7.8308 (LUMO)
        10                         -0.2876888              -7.8284
        11                          0.0944116               2.5691
        12                          0.1548261               4.2130
        13                          0.1663797               4.5274
       ...                                ...                  ...
        15                          1.0646613              28.9709
      -------------------------------------------------------------
                  HL-Gap            0.2337039 Eh            6.3594 eV
             Fermi-level           -0.4629340 Eh          -12.5971 eV

 SCC (total)                   0 d,  0 h,  0 min,  0.001 sec
 SCC setup                      ...        0 min,  0.000 sec (  9.225%)
 Dispersion                     ...        0 min,  0.000 sec (  4.261%)
 classical contributions        ...        0 min,  0.000 sec (  1.700%)
 integral evaluation            ...        0 min,  0.000 sec ( 12.353%)
 iterations                     ...        0 min,  0.000 sec ( 43.450%)
 molecular gradient             ...        0 min,  0.000 sec ( 22.915%)
 printout                       ...        0 min,  0.000 sec (  5.145%)

         :::::::::::::::::::::::::::::::::::::::::::::::::::::
         ::                     SUMMARY                     ::
         :::::::::::::::::::::::::::::::::::::::::::::::::::::
         :: total energy              -8.216051830916 Eh    ::
         :: total w/o Gsasa/hb        -8.199776812684 Eh    ::
         :: gradient norm              0.000707237952 Eh/a0 ::
         :: HOMO-LUMO gap              6.359407478677 eV    ::
         ::.................................................::
         :: SCC energy                -8.391456010806 Eh    ::
         :: -> isotropic ES            0.140102850181 Eh    ::
         :: -> anisotropic ES         -0.021274419743 Eh    ::
         :: -> anisotropic XC          0.016399960325 Eh    ::
         :: -> dispersion             -0.001242807200 Eh    ::
         :: -> Gsolv                  -0.126365758415 Eh    ::
         ::    -> Gelec               -0.110090740183 Eh    ::
         ::    -> Gsasa               -0.005503318080 Eh    ::
         ::    -> Ghb                 -0.011852459851 Eh    ::
         ::    -> Gshift               0.001080759698 Eh    ::
         :: repulsion energy           0.175404097658 Eh    ::
         :: add. restraining           0.000000000000 Eh    ::
         :: total charge               1.000000000859 e     ::
         :::::::::::::::::::::::::::::::::::::::::::::::::::::

           -------------------------------------------------
          |                Property Printout                |
           -------------------------------------------------

    * Orbital Energies and Occupations

         #    Occupation            Energy/Eh            Energy/eV
      -------------------------------------------------------------
         1        2.0000           -0.7361124             -20.0306
         2        2.0000           -0.7060539             -19.2127
         3        2.0000           -0.6030549             -16.4100
         4        2.0000           -0.5956322             -16.2080
         5        2.0000           -0.5955881             -16.2068
         6        1.7284           -0.5221774             -14.2092
         7        1.7088           -0.5220851             -14.2067
         8        1.5628           -0.5214798             -14.1902 (HOMO)
         9                         -0.2877759              -7.8308 (LUMO)
        10                         -0.2876888              -7.8284
        11                          0.0944116               2.5691
        12                          0.1548261               4.2130
        13                          0.1663797               4.5274
        14                          0.1678333               4.5670
        15                          1.0646613              28.9709
      -------------------------------------------------------------
                  HL-Gap            0.2337039 Eh            6.3594 eV
             Fermi-level           -0.4629340 Eh          -12.5971 eV

     #   Z          covCN         q      C6AA      α(0)
     1   6 C        3.748    -0.151    23.485     6.912
     2   6 C        1.891     0.207    26.236     8.273
     3   7 N        0.911     0.012    21.044     6.635
     4   1 H        0.922     0.310     0.679     1.289
     5   1 H        0.922     0.312     0.675     1.285
     6   1 H        0.922     0.310     0.680     1.290

 Mol. C6AA /au·bohr⁶  :        288.986506
 Mol. C8AA /au·bohr⁸  :       6991.747354
 Mol. α(0) /au        :         25.682917


Wiberg/Mayer (AO) data.
largest (>0.10) Wiberg bond orders for each atom

 ---------------------------------------------------------------------------
     #   Z sym  total        # sym  WBO       # sym  WBO       # sym  WBO
 ---------------------------------------------------------------------------
     1   6 C    3.503 --     2 C    1.222     6 H    0.752     4 H    0.751
                             5 H    0.748
     2   6 C    3.848 --     3 N    2.542     1 C    1.222
     3   7 N    2.642 --     2 C    2.542
     4   1 H    0.811 --     1 C    0.751
     5   1 H    0.808 --     1 C    0.748
     6   1 H    0.812 --     1 C    0.752
 ---------------------------------------------------------------------------

Topologies differ in total number of bonds
Writing topology from bond orders to xtbtopo.mol

molecular dipole:
                 x           y           z       tot (Debye)
 q only:       -0.937       0.108      -0.178
   full:       -1.016       0.114      -0.197       2.647
molecular quadrupole (traceless):
                xx          xy          yy          xz          yz          zz
 q only:        1.268      -0.228      -0.655       0.367      -0.039      -0.613
  q+dip:        1.420      -0.267      -0.730       0.399      -0.047      -0.690
   full:       -0.046      -0.006       0.026      -0.044      -0.000       0.020

           -------------------------------------------------
          |                Geometry Summary                 |
           -------------------------------------------------

      molecular mass/u    :       41.0519973
   center of mass at/Å    :        0.7677119      -0.0901093       0.1483814
  moments of inertia/u·Å² :        0.3226347E+01   0.5211872E+02   0.5212707E+02
rotational constants/cm⁻¹ :        0.5224990E+01   0.3234468E+00   0.3233950E+00

 * 5 selected distances

     #   Z          #   Z                                           value/Å
     1   6 C        2   6 C                                       1.3874924 (max)
     2   6 C        3   7 N                                       1.1528335
     1   6 C        4   1 H                                       1.1064802
     1   6 C        5   1 H                                       1.1064539
     1   6 C        6   1 H                                       1.1063283 (min)

 * 3 distinct bonds (by element types)

   Z      Z             #   av. dist./Å        max./Å        min./Å
   1 H    6 C           3     1.1064208     1.1064802     1.1063283
   6 C    6 C           1     1.3874924     1.3874924     1.3874924
   6 C    7 N           1     1.1528335     1.1528335     1.1528335


optimized geometry written to: xtbopt.xyz


           -------------------------------------------------
          | TOTAL ENERGY               -8.216051830916 Eh   |
          | GRADIENT NORM               0.000707237952 Eh/α |
          | HOMO-LUMO GAP               6.359407478677 eV   |
           -------------------------------------------------
########################################################################
[WARNING] Runtime exception occurred
-2- restart_readRestart: Dimension missmatch in restart file.
-1- restart_readRestart: Number of electron missmatch in restart file.
########################################################################

------------------------------------------------------------------------
 * finished run on 2024/10/22 at 11:56:20.520     
------------------------------------------------------------------------
 total:
 * wall-time:     0 d,  0 h,  0 min,  0.307 sec
 *  cpu-time:     0 d,  0 h,  0 min,  1.871 sec
 * ratio c/w:     6.095 speedup
 SCF:
 * wall-time:     0 d,  0 h,  0 min,  0.007 sec
 *  cpu-time:     0 d,  0 h,  0 min,  0.051 sec
 * ratio c/w:     7.598 speedup
 ANC optimizer:
 * wall-time:     0 d,  0 h,  0 min,  0.015 sec
 *  cpu-time:     0 d,  0 h,  0 min,  0.099 sec
 * ratio c/w:     6.541 speedup

