      -----------------------------------------------------------      
     |                   =====================                   |     
     |                           x T B                           |     
     |                   =====================                   |     
     |                         S. Grimme                         |     
     |          Mulliken Center for Theoretical Chemistry        |     
     |                    University of Bonn                     |     
      -----------------------------------------------------------      

   * xtb version 6.6.0 (conda-forge) compiled by 'runner@Mac-1676020848589.local' on 2023-02-10

   xtb is free software: you can redistribute it and/or modify it under
   the terms of the GNU Lesser General Public License as published by
   the Free Software Foundation, either version 3 of the License, or
   (at your option) any later version.
   
   xtb is distributed in the hope that it will be useful,
   but WITHOUT ANY WARRANTY; without even the implied warranty of
   MERCHANTABILITY or FITNESS FOR A PARTICULAR PURPOSE.  See the
   GNU Lesser General Public License for more details.
   
   Cite this work as:
   * C. Bannwarth, E. Caldeweyher, S. Ehlert, A. Hansen, P. Pracht,
     J. Seibert, S. Spicher, S. Grimme, WIREs Comput. Mol. Sci., 2020, 11,
     e01493. DOI: 10.1002/wcms.1493
   
   for GFN2-xTB:
   * C. Bannwarth, S. Ehlert and S. Grimme., J. Chem. Theory Comput., 2019,
     15, 1652-1671. DOI: 10.1021/acs.jctc.8b01176
   for GFN1-xTB:
   * S. Grimme, C. Bannwarth, P. Shushkov, J. Chem. Theory Comput., 2017,
     13, 1989-2009. DOI: 10.1021/acs.jctc.7b00118
   for GFN0-xTB:
   * P. Pracht, E. Caldeweyher, S. Ehlert, S. Grimme, ChemRxiv, 2019, preprint.
     DOI: 10.26434/chemrxiv.8326202.v1
   for GFN-FF:
   * S. Spicher and S. Grimme, Angew. Chem. Int. Ed., 2020, 59, 15665-15673.
     DOI: 10.1002/anie.202004239
   
   for ALPB and GBSA implicit solvation:
   * S. Ehlert, M. Stahn, S. Spicher, S. Grimme, J. Chem. Theory Comput.,
     2021, 17, 4250-4261. DOI: 10.1021/acs.jctc.1c00471
   
   for DFT-D4:
   * E. Caldeweyher, C. Bannwarth and S. Grimme, J. Chem. Phys., 2017,
     147, 034112. DOI: 10.1063/1.4993215
   * E. Caldeweyher, S. Ehlert, A. Hansen, H. Neugebauer, S. Spicher,
     C. Bannwarth and S. Grimme, J. Chem. Phys., 2019, 150, 154122.
     DOI: 10.1063/1.5090222
   * E. Caldeweyher, J.-M. Mewes, S. Ehlert and S. Grimme, Phys. Chem. Chem. Phys.
     2020, 22, 8499-8512. DOI: 10.1039/D0CP00502A
   
   for sTDA-xTB:
   * S. Grimme and C. Bannwarth, J. Chem. Phys., 2016, 145, 054103.
     DOI: 10.1063/1.4959605
   
   in the mass-spec context:
   * V. Asgeirsson, C. Bauer and S. Grimme, Chem. Sci., 2017, 8, 4879.
     DOI: 10.1039/c7sc00601b
   * J. Koopman and S. Grimme, ACS Omega 2019, 4, 12, 15120-15133.
     DOI: 10.1021/acsomega.9b02011
   
   for metadynamics refer to:
   * S. Grimme, J. Chem. Theory Comput., 2019, 155, 2847-2862
     DOI: 10.1021/acs.jctc.9b00143
   
   for SPH calculations refer to:
   * S. Spicher and S. Grimme, J. Chem. Theory Comput., 2021, 17, 1701-1714
     DOI: 10.1021/acs.jctc.0c01306
   
   with help from (in alphabetical order)
   P. Atkinson, C. Bannwarth, F. Bohle, G. Brandenburg, E. Caldeweyher
   M. Checinski, S. Dohm, S. Ehlert, S. Ehrlich, I. Gerasimov, C. Hölzer
   A. Katbashev, J. Koopman, C. Lavigne, S. Lehtola, F. März, M. Müller,
   F. Musil, H. Neugebauer, J. Pisarek, C. Plett, P. Pracht, F. Pultar,
   J. Seibert, P. Shushkov, S. Spicher, M. Stahn, M. Steiner, T. Strunk,
   J. Stückrath, T. Rose, and J. Unsleber
   
 * started run on 2024/10/22 at 09:29:39.166     

           -------------------------------------------------
          |                Calculation Setup                |
           -------------------------------------------------

          program call               : xtb paracetamol.xyz --gfn2
          coordinate file            : paracetamol.xyz
          omp threads                :                     8

   ID    Z sym.   atoms
    1    6 C      1, 2, 5-10
    2    8 O      3, 11
    3    7 N      4
    4    1 H      12-20

           -------------------------------------------------
          |                 G F N 2 - x T B                 |
           -------------------------------------------------

        Reference                      10.1021/acs.jctc.8b01176
      * Hamiltonian:
        H0-scaling (s, p, d)           1.850000    2.230000    2.230000
        zeta-weighting                 0.500000
      * Dispersion:
        s8                             2.700000
        a1                             0.520000
        a2                             5.000000
        s9                             5.000000
      * Repulsion:
        kExp                           1.500000    1.000000
        rExp                           1.000000
      * Coulomb:
        alpha                          2.000000
        third order                    shell-resolved
        anisotropic                    true
        a3                             3.000000
        a5                             4.000000
        cn-shift                       1.200000
        cn-exp                         4.000000
        max-rad                        5.000000


          ...................................................
          :                      SETUP                      :
          :.................................................:
          :  # basis functions                  53          :
          :  # atomic orbitals                  53          :
          :  # shells                           31          :
          :  # electrons                        58          :
          :  max. iterations                   250          :
          :  Hamiltonian                  GFN2-xTB          :
          :  restarted?                      false          :
          :  GBSA solvation                  false          :
          :  PC potential                    false          :
          :  electronic temp.          300.0000000     K    :
          :  accuracy                    1.0000000          :
          :  -> integral cutoff          0.2500000E+02      :
          :  -> integral neglect         0.1000000E-07      :
          :  -> SCF convergence          0.1000000E-05 Eh   :
          :  -> wf. convergence          0.1000000E-03 e    :
          :  Broyden damping             0.4000000          :
          ...................................................

 iter      E             dE          RMSdq      gap      omega  full diag
   1    -33.0959568 -0.330960E+02  0.448E+00    3.36       0.0  T
   2    -33.1517098 -0.557529E-01  0.250E+00    3.47       1.0  T
   3    -33.1533801 -0.167036E-02  0.135E+00    3.55       1.0  T
   4    -33.1589614 -0.558126E-02  0.268E-01    3.39       1.0  T
   5    -33.1600134 -0.105201E-02  0.945E-02    3.46       1.0  T
   6    -33.1600248 -0.114319E-04  0.459E-02    3.47       1.0  T
   7    -33.1600402 -0.153917E-04  0.193E-02    3.46       1.2  T
   8    -33.1600432 -0.301933E-05  0.550E-03    3.46       4.1  T
   9    -33.1600433 -0.353231E-07  0.217E-03    3.46      10.3  T
  10    -33.1600433 -0.446993E-07  0.950E-04    3.46      23.5  T
  11    -33.1600433 -0.785190E-08  0.307E-04    3.46      72.9  T

   *** convergence criteria satisfied after 11 iterations ***

         #    Occupation            Energy/Eh            Energy/eV
      -------------------------------------------------------------
         1        2.0000           -0.6968318             -18.9618
       ...           ...                  ...                  ...
        23        2.0000           -0.4630982             -12.6015
        24        2.0000           -0.4565041             -12.4221
        25        2.0000           -0.4302778             -11.7085
        26        2.0000           -0.4179166             -11.3721
        27        2.0000           -0.4056811             -11.0391
        28        2.0000           -0.3949619             -10.7475
        29        2.0000           -0.3701377             -10.0720 (HOMO)
        30                         -0.2429801              -6.6118 (LUMO)
        31                         -0.2302262              -6.2648
        32                         -0.2048112              -5.5732
        33                         -0.0977895              -2.6610
        34                         -0.0502280              -1.3668
       ...                                ...                  ...
        53                          0.6195387              16.8585
      -------------------------------------------------------------
                  HL-Gap            0.1271576 Eh            3.4601 eV
             Fermi-level           -0.3065589 Eh           -8.3419 eV

 SCC (total)                   0 d,  0 h,  0 min,  0.020 sec
 SCC setup                      ...        0 min,  0.001 sec (  2.842%)
 Dispersion                     ...        0 min,  0.000 sec (  1.110%)
 classical contributions        ...        0 min,  0.000 sec (  0.172%)
 integral evaluation            ...        0 min,  0.001 sec (  3.437%)
 iterations                     ...        0 min,  0.016 sec ( 79.299%)
 molecular gradient             ...        0 min,  0.002 sec (  9.079%)
 printout                       ...        0 min,  0.001 sec (  3.963%)

         :::::::::::::::::::::::::::::::::::::::::::::::::::::
         ::                     SUMMARY                     ::
         :::::::::::::::::::::::::::::::::::::::::::::::::::::
         :: total energy             -32.759261746979 Eh    ::
         :: gradient norm              0.121036590445 Eh/a0 ::
         :: HOMO-LUMO gap              3.460134268450 eV    ::
         ::.................................................::
         :: SCC energy               -33.160043329104 Eh    ::
         :: -> isotropic ES            0.061132431855 Eh    ::
         :: -> anisotropic ES          0.005396896057 Eh    ::
         :: -> anisotropic XC          0.011666860401 Eh    ::
         :: -> dispersion             -0.015823430255 Eh    ::
         :: repulsion energy           0.400820747591 Eh    ::
         :: add. restraining           0.000000000000 Eh    ::
         :: total charge               0.000000000000 e     ::
         :::::::::::::::::::::::::::::::::::::::::::::::::::::

           -------------------------------------------------
          |                Property Printout                |
           -------------------------------------------------

    * Orbital Energies and Occupations

         #    Occupation            Energy/Eh            Energy/eV
      -------------------------------------------------------------
         1        2.0000           -0.6968318             -18.9618
       ...           ...                  ...                  ...
        17        2.0000           -0.4985418             -13.5660
        18        2.0000           -0.4922915             -13.3959
        19        2.0000           -0.4820636             -13.1176
        20        2.0000           -0.4817770             -13.1098
        21        2.0000           -0.4799052             -13.0589
        22        2.0000           -0.4699176             -12.7871
        23        2.0000           -0.4630982             -12.6015
        24        2.0000           -0.4565041             -12.4221
        25        2.0000           -0.4302778             -11.7085
        26        2.0000           -0.4179166             -11.3721
        27        2.0000           -0.4056811             -11.0391
        28        2.0000           -0.3949619             -10.7475
        29        2.0000           -0.3701377             -10.0720 (HOMO)
        30                         -0.2429801              -6.6118 (LUMO)
        31                         -0.2302262              -6.2648
        32                         -0.2048112              -5.5732
        33                         -0.0977895              -2.6610
        34                         -0.0502280              -1.3668
        35                         -0.0130694              -0.3556
        36                          0.0764848               2.0813
        37                          0.1112659               3.0277
        38                          0.1192359               3.2446
        39                          0.1280529               3.4845
        40                          0.1495382               4.0691
       ...                                ...                  ...
        53                          0.6195387              16.8585
      -------------------------------------------------------------
                  HL-Gap            0.1271576 Eh            3.4601 eV
             Fermi-level           -0.3065589 Eh           -8.3419 eV

     #   Z          covCN         q      C6AA      α(0)
     1   6 C        3.743    -0.127    23.012     6.843
     2   6 C        2.743     0.265    22.520     7.770
     3   8 O        0.856    -0.422    22.130     6.307
     4   7 N        2.679    -0.177    24.824     7.400
     5   6 C        2.891     0.070    26.430     8.429
     6   6 C        2.911    -0.035    28.865     8.810
     7   6 C        2.909    -0.047    29.174     8.857
     8   6 C        2.835     0.146    24.817     8.164
     9   6 C        2.909    -0.065    29.623     8.925
    10   6 C        2.912    -0.051    29.272     8.872
    11   8 O        1.648    -0.402    20.888     6.170
    12   1 H        0.921     0.079     1.986     2.204
    13   1 H        0.922     0.069     2.102     2.267
    14   1 H        0.922     0.051     2.311     2.378
    15   1 H        0.857     0.161     1.330     1.807
    16   1 H        0.925     0.065     2.143     2.289
    17   1 H        0.925     0.059     2.207     2.323
    18   1 H        0.925     0.035     2.517     2.481
    19   1 H        0.925     0.035     2.523     2.484
    20   1 H        0.796     0.291     0.750     1.361

 Mol. C6AA /au·bohr⁶  :       4612.642894
 Mol. C8AA /au·bohr⁸  :     108876.295574
 Mol. α(0) /au        :        106.139395


Wiberg/Mayer (AO) data.
largest (>0.10) Wiberg bond orders for each atom

 ---------------------------------------------------------------------------
     #   Z sym  total        # sym  WBO       # sym  WBO       # sym  WBO
 ---------------------------------------------------------------------------
     1   6 C    3.993 --     2 C    1.014    14 H    0.976    12 H    0.976
                            13 H    0.957
     2   6 C    3.944 --     3 O    1.711     4 N    1.162     1 C    1.014
     3   8 O    2.003 --     2 C    1.711     4 N    0.168
     4   7 N    3.436 --     2 C    1.162     5 C    1.045    15 H    0.943
                             3 O    0.168
     5   6 C    3.959 --    10 C    1.383     6 C    1.373     4 N    1.045
     6   6 C    3.988 --     7 C    1.458     5 C    1.373    16 H    0.967
                             9 C    0.105
     7   6 C    3.987 --     6 C    1.458     8 C    1.367    17 H    0.967
                            10 C    0.105
     8   6 C    3.934 --     9 C    1.373     7 C    1.367    11 O    1.054
     9   6 C    3.987 --    10 C    1.447     8 C    1.373    18 H    0.968
                             6 C    0.105
    10   6 C    3.989 --     9 C    1.447     5 C    1.383    19 H    0.969
                             7 C    0.105
    11   8 O    2.095 --     8 C    1.054    20 H    0.891
    12   1 H    0.993 --     1 C    0.976
    13   1 H    0.995 --     1 C    0.957
    14   1 H    0.997 --     1 C    0.976
    15   1 H    0.974 --     4 N    0.943
    16   1 H    0.995 --     6 C    0.967
    17   1 H    0.996 --     7 C    0.967
    18   1 H    0.998 --     9 C    0.968
    19   1 H    0.999 --    10 C    0.969
    20   1 H    0.915 --    11 O    0.891
 ---------------------------------------------------------------------------

Topologies differ in total number of bonds
Writing topology from bond orders to xtbtopo.mol

molecular dipole:
                 x           y           z       tot (Debye)
 q only:        0.036      -1.534       0.208
   full:        0.064      -2.047       0.106       5.213
molecular quadrupole (traceless):
                xx          xy          yy          xz          yz          zz
 q only:        9.552      -3.139      -5.599       3.242       2.856      -3.953
  q+dip:       12.391      -1.855      -5.636       4.846       5.528      -6.755
   full:       11.406      -2.206      -6.612       4.748       4.090      -4.794


           -------------------------------------------------
          | TOTAL ENERGY              -32.759261746979 Eh   |
          | GRADIENT NORM               0.121036590445 Eh/α |
          | HOMO-LUMO GAP               3.460134268450 eV   |
           -------------------------------------------------
########################################################################
[WARNING] Runtime exception occurred
-2- restart_readRestart: Dimension missmatch in restart file.
-1- restart_readRestart: Number of electron missmatch in restart file.
########################################################################

------------------------------------------------------------------------
 * finished run on 2024/10/22 at 09:29:39.469     
------------------------------------------------------------------------
 total:
 * wall-time:     0 d,  0 h,  0 min,  0.303 sec
 *  cpu-time:     0 d,  0 h,  0 min,  1.782 sec
 * ratio c/w:     5.892 speedup
 SCF:
 * wall-time:     0 d,  0 h,  0 min,  0.020 sec
 *  cpu-time:     0 d,  0 h,  0 min,  0.129 sec
 * ratio c/w:     6.289 speedup

