6
 energy: 19324.794104676097 gnorm: 367467.780849094561 xtb: 6.6.0 (conda-forge)
O           -1.30750000000000       -1.00660000000000       -0.14160000000000
S           -0.00250000000000        0.03970000000000        0.00960000000000
O            0.03310000000000        0.59740000000000        1.40400000000000
O           -0.14550000000000        1.16430000000000       -0.97600000000000
O            1.42250000000000       -0.79480000000000       -0.29610000000000
Pb           0.00000000000000        0.00000000000000        0.00000000000000
