6
 energy: -8.212273262431 gnorm: 0.055122443161 xtb: 6.6.0 (conda-forge)
C           -0.48340000000000        0.05660000000000       -0.09360000000000
C            0.94370000000000       -0.11060000000000        0.18280000000000
N            2.07230000000000       -0.24290000000000        0.40150000000000
H           -0.79400000000000       -0.65980000000000       -0.88180000000000
H           -1.06460000000000       -0.13650000000000        0.83140000000000
H           -0.67410000000000        1.09310000000000       -0.44030000000000
6
 energy: -8.215525996623 gnorm: 0.033038150841 xtb: 6.6.0 (conda-forge)
C           -0.46359708678947        0.05436776070441       -0.08989909364380
C            0.91486025783021       -0.10787106688774        0.17674413816828
N            2.03246805656093       -0.23775366471318        0.39423205281296
H           -0.77833588960885       -0.65753810660039       -0.87451914632295
H           -1.04685982090089       -0.13722045338873        0.82900652333076
H           -0.65863551709194        1.08591553088563       -0.43556447434524
6
 energy: -8.216006683149 gnorm: 0.003955581855 xtb: 6.6.0 (conda-forge)
C           -0.44919317122599        0.05272337849850       -0.08732337392415
C            0.90064112536608       -0.10715479256173        0.17321169334582
N            2.02347453128737       -0.23595561645754        0.39312802492107
H           -0.77608939400254       -0.65414526209568       -0.87020030914355
H           -1.04258577085605       -0.13627664892369        0.82444785903541
H           -0.65634732056888        1.08070894154014       -0.43326389423460
6
 energy: -8.216047095935 gnorm: 0.001469368476 xtb: 6.6.0 (conda-forge)
C           -0.44791500559457        0.05256975433110       -0.08719700480567
C            0.90550725526178       -0.10806213621948        0.17381302301326
N            2.02927100774970       -0.23642002842457        0.39442595827753
H           -0.78007078730150       -0.65325971343428       -0.87035705189372
H           -1.04642482334703       -0.13538560277671        0.82278334127783
H           -0.66046764676837        1.08045772652394       -0.43346826586923
6
 energy: -8.216051830919 gnorm: 0.000706920507 xtb: 6.6.0 (conda-forge)
C           -0.44496465938081        0.05219975425267       -0.08697234007632
C            0.90827222663559       -0.10879341388286        0.17373064183187
N            2.03238790752655       -0.23666688145041        0.39517378328330
H           -0.78256916789853       -0.65284205159068       -0.87006708794637
H           -1.04941230228117       -0.13406437940874        0.82087610493132
H           -0.66381400460163        1.08006697208001       -0.43274110202381
