24
 energy: -42.131895961989 gnorm: 0.161491463540 xtb: 6.6.0 (conda-forge)
C            3.31540000000000       -0.02430000000000        0.21900000000000
N            2.04050000000000        0.66400000000000        0.04470000000000
C            1.84020000000000        2.00210000000000       -0.04150000000000
N            0.53400000000000        2.33740000000000       -0.20710000000000
C           -0.08360000000000        1.13870000000000       -0.22250000000000
C            0.81110000000000        0.13560000000000       -0.07420000000000
C            0.39100000000000       -1.18800000000000       -0.06850000000000
O            1.22260000000000       -2.12300000000000        0.09230000000000
N           -0.95000000000000       -1.44580000000000       -0.24220000000000
C           -1.85050000000000       -0.40020000000000       -0.36950000000000
O           -3.08290000000000       -0.64630000000000       -0.50240000000000
N           -1.41860000000000        0.90900000000000       -0.35200000000000
C           -2.36120000000000        2.02120000000000       -0.53270000000000
C           -1.43860000000000       -2.83490000000000       -0.22230000000000
H            3.29470000000000       -0.61960000000000        1.15580000000000
H            4.14720000000000        0.70920000000000        0.28210000000000
H            3.49900000000000       -0.69710000000000       -0.64470000000000
H            2.63600000000000        2.73360000000000        0.01530000000000
H           -3.30120000000000        1.83060000000000        0.02810000000000
H           -1.94220000000000        2.97590000000000       -0.14950000000000
H           -2.59600000000000        2.13780000000000       -1.61150000000000
H           -1.73280000000000       -3.11070000000000        0.81220000000000
H           -2.31230000000000       -2.96110000000000       -0.89680000000000
H           -0.66230000000000       -3.54410000000000       -0.58080000000000
24
 energy: -42.149132857763 gnorm: 0.068996388565 xtb: 6.6.0 (conda-forge)
C            3.30746038030173       -0.00791976891838        0.21690195538646
N            2.04914301639154        0.67807164820594        0.04391575032533
C            1.83862356191672        2.00844779476725       -0.04085724432267
N            0.55522112354488        2.33522271090656       -0.20127033952163
C           -0.08475609095503        1.14375125863279       -0.22228619820459
C            0.81702629442690        0.11496936877393       -0.07342518964443
C            0.40441681112331       -1.23745755171054       -0.06458786502950
O            1.19624801554663       -2.17655405771268        0.08527804498711
N           -0.95218832775690       -1.44194948408667       -0.23950435219774
C           -1.86519265990096       -0.40113675392845       -0.37126587031443
O           -3.06236784716087       -0.64066563190077       -0.50116071339753
N           -1.42199375835941        0.90596391048489       -0.35406915602977
C           -2.35962867600079        2.00295742357510       -0.53383072460588
C           -1.44623051525283       -2.81239127117881       -0.22214032911096
H            3.28141134424954       -0.60853899502950        1.13191167249648
H            4.12045020733036        0.72087485749987        0.27844194430782
H            3.48214259609997       -0.68392522733952       -0.62630103895371
H            2.62471903885318        2.73690044274981        0.01489683552834
H           -3.28369072136791        1.79451355906438        0.01487822618681
H           -1.90784462441587        2.92501118877139       -0.15452782991400
H           -2.59601567931186        2.12584359425143       -1.59594890395298
H           -1.73485715482400       -3.09354270297947        0.79579833763242
H           -2.31248977082383       -2.90574586758776       -0.88418831724777
H           -0.65010656365453       -3.48270044531077       -0.56535869440317
24
 energy: -42.153125398937 gnorm: 0.016424177520 xtb: 6.6.0 (conda-forge)
C            3.30169401067451        0.00454329448623        0.21497512651891
N            2.05450038329549        0.69061262982526        0.04255466793174
C            1.83182196408335        2.01401818483261       -0.03964335208153
N            0.56470798918017        2.32820507166424       -0.19861835743421
C           -0.08246197246631        1.14010071398464       -0.22338386758350
C            0.82277656172723        0.09840280519787       -0.07396040313607
C            0.42523799120480       -1.27528003163062       -0.06012103718428
O            1.17984487884536       -2.22258677211494        0.07957549929884
N           -0.94640827428203       -1.43030770808367       -0.23206242487325
C           -1.87785230170096       -0.40311492064246       -0.37183275964011
O           -3.05508700162572       -0.64214703682795       -0.50037796257091
N           -1.41734010770965        0.89850518316353       -0.35768012386075
C           -2.35288742217077        1.98704539425440       -0.53458641827724
C           -1.45285077648613       -2.78883586143298       -0.22135860132786
H            3.27211771138880       -0.59740585196113        1.12244722072124
H            4.10601567806268        0.73104984225944        0.27665752546222
H            3.47298625209442       -0.67125785554805       -0.62200168163561
H            2.61241134237419        2.74410804357371        0.01668822181899
H           -3.26745547101023        1.76499807758364        0.00971956009924
H           -1.88508853247500        2.89123276633677       -0.15630983570121
H           -2.59497250592400        2.11368839341873       -1.58929625066323
H           -1.74642443895982       -3.07643773153699        0.78726523881763
H           -2.31449783604923       -2.85711242412966       -0.87889705613377
H           -0.65128812207117       -3.44202420667260       -0.55845292856526
24
 energy: -42.153514513025 gnorm: 0.008051860202 xtb: 6.6.0 (conda-forge)
C            3.30513707296624        0.01056698587020        0.21507361464658
N            2.05738219777820        0.69444454709891        0.04189535040884
C            1.82845331346110        2.01639715860437       -0.03984159059512
N            0.56021849445041        2.32430844417550       -0.19923236480637
C           -0.08048646678657        1.13389044521554       -0.22490285608817
C            0.82690056640928        0.09338602106420       -0.07471822919977
C            0.43524075830677       -1.28458823187291       -0.05792155643561
O            1.17708082630205       -2.24088390118476        0.07630352341176
N           -0.94143952624188       -1.42486947525738       -0.22534182965939
C           -1.87913322517921       -0.40529358263689       -0.37045378184998
O           -3.05803727634637       -0.64709783785443       -0.49896643340447
N           -1.41292281907535        0.89304281398442       -0.36086461335360
C           -2.34938657998006        1.98134593708796       -0.53475709835012
C           -1.45874800183209       -2.78088187941270       -0.22142051700463
H            3.27529859292243       -0.59132045499468        1.12373692613693
H            4.10962908567410        0.73893981679430        0.27757731832759
H            3.47786304248742       -0.66455813410181       -0.62344500741881
H            2.60740286091620        2.74967117187920        0.01817059560906
H           -3.26270019085363        1.75363330420550        0.01145106305161
H           -1.88004925331042        2.88484016481547       -0.15626535279451
H           -2.59477515113016        2.10807894646159       -1.58993842719575
H           -1.76092102621224       -3.06896660298192        0.78586606211483
H           -2.32051018987390       -2.83447651736475       -0.88221244327572
H           -0.66199710485232       -3.43960913959495       -0.55849235227516
24
 energy: -42.153626977346 gnorm: 0.002965346451 xtb: 6.6.0 (conda-forge)
C            3.30970119242643        0.01608989880629        0.21567895312000
N            2.05953575851548        0.69668704173084        0.04159821741624
C            1.82545166463473        2.01756324900887       -0.03957658930153
N            0.55467197751969        2.32006791271009       -0.20051433919915
C           -0.07885510744009        1.12685161457650       -0.22679149958032
C            0.83061271399620        0.08923528787955       -0.07659726460984
C            0.44262483805968       -1.28983807817259       -0.05854208043296
O            1.17437279652472       -2.25295029455872        0.07152502451506
N           -0.93793088659809       -1.42164476599615       -0.21936940046891
C           -1.87833559084017       -0.40729511393036       -0.36890800497735
O           -3.05836358880704       -0.65042648188927       -0.49532287780195
N           -1.40951759113544        0.88867158435476       -0.36478655144904
C           -2.34658908942724        1.97846139536998       -0.53465497874790
C           -1.46461479258463       -2.77673687455938       -0.22140400890807
H            3.28171882417486       -0.58572348279441        1.12534397435413
H            4.11400719582801        0.74643700547070        0.27959651564437
H            3.48642663306628       -0.65740819250605       -0.62432633109261
H            2.60264563873379        2.75363144462162        0.02019311449421
H           -3.25923063641503        1.74811022116861        0.01318852349158
H           -1.87887932600239        2.88340783040605       -0.15639794020463
H           -2.59468832839449        2.10526002338252       -1.59004901570611
H           -1.77610150016338       -3.06349598422861        0.78431423202241
H           -2.32491748598053       -2.82041859079845       -0.88587283798251
H           -0.67424530969135       -3.44453665005238       -0.55702483459513
24
 energy: -42.153640459842 gnorm: 0.001762422618 xtb: 6.6.0 (conda-forge)
C            3.31141104624241        0.01804277655716        0.21593615815073
N            2.05985174654365        0.69652018187232        0.04149913545092
C            1.82464415922480        2.01709423004133       -0.03918189596204
N            0.55322716168544        2.31831106673223       -0.20062821387507
C           -0.07847148181430        1.12416260790338       -0.22757031073116
C            0.83158940343376        0.08765500749987       -0.07784577257522
C            0.44353349238846       -1.29069908808920       -0.06010665285621
O            1.17313623437689       -2.25533909118277        0.06772513721310
N           -0.93822325198347       -1.42185426789532       -0.21780240182728
C           -1.87828132160727       -0.40795351162329       -0.36803999218217
O           -3.05863805649247       -0.65055770485091       -0.49295789288698
N           -1.40913758820639        0.88787633301655       -0.36664830856688
C           -2.34573369175275        1.97851280527656       -0.53489060013917
C           -1.46664722273851       -2.77676021265530       -0.22086320111886
H            3.28449344259913       -0.58390234782400        1.12557319477128
H            4.11442566817075        0.74998786819544        0.28069279397450
H            3.49033252911131       -0.65438994638619       -0.62448537797208
H            2.60108873013877        2.75380010173570        0.02153991240949
H           -3.25797050725241        1.74831038266433        0.01374675903264
H           -1.87778639254122        2.88341036049550       -0.15624751041617
H           -2.59428307329949        2.10587477906291       -1.59010599537030
H           -1.78177533083666       -3.06188423044094        0.78411086858630
H           -2.32460873871509       -2.81962294431824       -0.88808940396841
H           -0.67667695667531       -3.44659515578711       -0.55406042914093
24
 energy: -42.153650839285 gnorm: 0.001628923327 xtb: 6.6.0 (conda-forge)
C            3.31436876929612        0.02163220033419        0.21615293616153
N            2.06011526102449        0.69555564695424        0.04115594405869
C            1.82328798073649        2.01574130725730       -0.03778221616454
N            0.55149160931806        2.31534782426704       -0.20011259172451
C           -0.07805627171567        1.11975666885541       -0.22909965069910
C            0.83306332651274        0.08468764785660       -0.08078926977195
C            0.44391214524126       -1.29213930728405       -0.06456539093262
O            1.17124819136321       -2.25890290332899        0.05774120258229
N           -0.93997169126064       -1.42325572438033       -0.21597584797348
C           -1.87879847537653       -0.40916954254326       -0.36625435311455
O           -3.05978130464750       -0.65028868398337       -0.48717495456069
N           -1.40905382694508        0.88701116894401       -0.37032793464889
C           -2.34404722542916        1.97921159536755       -0.53551046938717
C           -1.47017919223472       -2.77761579946524       -0.21913291883921
H            3.28941312220135       -0.58125377437802        1.12507688119135
H            4.11375284120080        0.75731958220705        0.28303240167332
H            3.49785024693957       -0.64844769416025       -0.62498131601227
H            2.59841256903545        2.75330793833585        0.02520547131214
H           -3.25565442729517        1.74974758050091        0.01418964125717
H           -1.87438760535005        2.88296816494387       -0.15588136284961
H           -2.59320586493652        2.10856630109347       -1.59007490531420
H           -1.79425913898891       -3.05843518934906        0.78389704383839
H           -2.32183510848634       -2.82170930174726       -0.89377921015048
H           -0.67818593020323       -3.44963570629765       -0.54370912993159
24
 energy: -42.153655834759 gnorm: 0.001032154359 xtb: 6.6.0 (conda-forge)
C            3.31444827749326        0.02187229868465        0.21583231181846
N            2.06007128510337        0.69530237193405        0.04089074811244
C            1.82318261462861        2.01560659289564       -0.03714030832122
N            0.55177983761979        2.31548104868988       -0.19943646788160
C           -0.07822869498884        1.12000202022477       -0.22935671947949
C            0.83304827077812        0.08455589372619       -0.08158724642284
C            0.44363025198894       -1.29244860331243       -0.06622208069987
O            1.17182194257878       -2.25887922207835        0.05461997115013
N           -0.94030652238492       -1.42365646754045       -0.21664956024739
C           -1.87913364426882       -0.40933260756065       -0.36582593581817
O           -3.06020839880655       -0.65040560249369       -0.48540987959778
N           -1.40917265148570        0.88701564030527       -0.37064907716965
C           -2.34377561161893        1.97930239971470       -0.53552669163950
C           -1.47036229948961       -2.77773185824042       -0.21852872805580
H            3.28944537543766       -0.58179928963959        1.12420796869334
H            4.11312623976279        0.75803635820430        0.28349853260624
H            3.49851545508251       -0.64761321672073       -0.62558979832345
H            2.59834253727750        2.75310278900382        0.02655205924185
H           -3.25556128234865        1.74983769381354        0.01382216115559
H           -1.87350721389720        2.88244243409698       -0.15559042771565
H           -2.59291038616500        2.10943801629489       -1.58998798426392
H           -1.79879736784978       -3.05635437746102        0.78371362517269
H           -2.31943166832504       -2.82395146692395       -0.89645858282913
H           -0.67651634612229       -3.44982284561739       -0.53787788948530
24
 energy: -42.153669603225 gnorm: 0.001734335136 xtb: 6.6.0 (conda-forge)
C            3.31541756849739        0.02317282479007        0.21411487063747
N            2.06018014024498        0.69453396196725        0.03946830459357
C            1.82257899611998        2.01522701649254       -0.03442968187939
N            0.55189766242461        2.31547841598957       -0.19676861538954
C           -0.07858301385516        1.12008547306260       -0.23077530615198
C            0.83345814072826        0.08389077955303       -0.08553007185906
C            0.44366995936519       -1.29373689177497       -0.07374864819337
O            1.17455880828585       -2.25929052647255        0.04075216256747
N           -0.94061412071370       -1.42481205568712       -0.21883942476597
C           -1.87977394846975       -0.41021806771249       -0.36363262510830
O           -3.06141848246291       -0.65152241888984       -0.47686204694992
N           -1.40911865677785        0.88628197337993       -0.37236210137496
C           -2.34276242162877        1.97919304195932       -0.53516759016114
C           -1.47210534410353       -2.77763275618730       -0.21589367572550
H            3.29019113146739       -0.58411424690854        1.12013949970699
H            4.11175201319303        0.76121261158052        0.28592373683230
H            3.50254455636506       -0.64304096358740       -0.62927257135391
H            2.59768651814844        2.75268565986358        0.03260403851214
H           -3.25519110551059        1.74919167212801        0.01299341046149
H           -1.87125697846326        2.88058827551599       -0.15336285491522
H           -2.59165665053590        2.11239492826002       -1.58943896344437
H           -1.82474754955481       -3.04373947532421        0.78221921118691
H           -2.30661597643190       -2.83290258444720       -0.91229096620108
H           -0.67059124633208       -3.45292664755079       -0.50854009102464
24
 energy: -42.153681344551 gnorm: 0.002329156134 xtb: 6.6.0 (conda-forge)
C            3.31587937631057        0.02352073048324        0.21213394807781
N            2.06038850000293        0.69433808563464        0.03817805316883
C            1.82243310694311        2.01523027421924       -0.03261908844998
N            0.55193942351267        2.31566118169342       -0.19473204180048
C           -0.07854142806799        1.12039202263751       -0.23166106872329
C            0.83382270753063        0.08384548626200       -0.08847199819402
C            0.44442857996871       -1.29431964837290       -0.07900512219472
O            1.17709157455748       -2.25896969185163        0.03191065999278
N           -0.93985608060265       -1.42522409156215       -0.22050120268784
C           -1.87961143881035       -0.41063322393734       -0.36205494909986
O           -3.06135018110828       -0.65267223751899       -0.47127736861053
N           -1.40890840929263        0.88576970511469       -0.37316884887546
C           -2.34266545016530        1.97884028997780       -0.53430497427660
C           -1.47341040536883       -2.77705348586932       -0.21402328895759
H            3.29007269734981       -0.58709426350378        1.11590978325643
H            4.11130760338245        0.76209271269415        0.28764168876642
H            3.50484351592247       -0.63952611059214       -0.63333395821742
H            2.59748876446323        2.75255229821492        0.03672890609399
H           -3.25536743549408        1.74755597551995        0.01287287592999
H           -1.87145034126956        2.87947657530125       -0.15055933896584
H           -2.59103029310292        2.11418356099621       -1.58845959207641
H           -1.84887346979767       -3.03109442752345        0.77922797954510
H           -2.29307805825535       -2.84082928749232       -0.92770790228794
H           -0.66605285860843       -3.45604243052499       -0.48142315141336
24
 energy: -42.153699324897 gnorm: 0.003470915429 xtb: 6.6.0 (conda-forge)
C            3.31662367916851        0.02362994018861        0.20816615163604
N            2.06089321636282        0.69429694936438        0.03576453584786
C            1.82243821452497        2.01540275926271       -0.03036524202321
N            0.55180022186332        2.31591186507957       -0.19168251378683
C           -0.07818128630434        1.12069303263742       -0.23266678302337
C            0.83457619580629        0.08393138731728       -0.09300957564373
C            0.44628803176628       -1.29493147729881       -0.08640397119549
O            1.18135490384834       -2.25848848917886        0.01930178577368
N           -0.93800319818889       -1.42566502592044       -0.22254572559638
C           -1.87876784762354       -0.41116389971695       -0.35962875671039
O           -3.06068314566737       -0.65485041644470       -0.46258047252896
N           -1.40850986953172        0.88509272447501       -0.37376322985339
C           -2.34309268423008        1.97808424649080       -0.53218392221242
C           -1.47554168277845       -2.77583864956165       -0.21104756918111
H            3.28931445090849       -0.59284091941056        1.10794832028235
H            4.11119217900833        0.76252452777972        0.29031633377801
H            3.50827397558777       -0.63378819152381       -0.64116602693053
H            2.59729396117674        2.75263882328720        0.04221703604474
H           -3.25632266326824        1.74385146916684        0.01290544227897
H           -1.87339095718357        2.87791611248495       -0.14461143172985
H           -2.58993480791151        2.11689939018419       -1.58626650925229
H           -1.89346238391810       -3.00811559853312        0.77195049598148
H           -2.26652153041748       -2.85399116296226       -0.95709549591573
H           -0.65813697299857       -3.46119939716753       -0.43225287603944
24
 energy: -42.153716580572 gnorm: 0.003861816477 xtb: 6.6.0 (conda-forge)
C            3.31665238887751        0.02283137547207        0.20489439884990
N            2.06136635400936        0.69473896976487        0.03380116506807
C            1.82281985089100        2.01591507912292       -0.02944264992764
N            0.55179793813997        2.31649499658023       -0.18972097961404
C           -0.07776080861077        1.12144480302581       -0.23277195132502
C            0.83505519547294        0.08460518450169       -0.09593051831965
C            0.44825558503224       -1.29486213864493       -0.09103790360894
O            1.18489062883651       -2.25742426411090        0.01210004105695
N           -0.93585829680088       -1.42545712277739       -0.22370866014749
C           -1.87767009494575       -0.41114441131159       -0.35722448645853
O           -3.05939217497284       -0.65660573271205       -0.45676184367171
N           -1.40819918845211        0.88491471666004       -0.37274985221654
C           -2.34405165936199        1.97735061949402       -0.53021210142186
C           -1.47664459934197       -2.77446034641255       -0.20936964897020
H            3.28738310066891       -0.59823748860960        1.10146474893467
H            4.11168807116691        0.76077540454030        0.29234374279478
H            3.50959895557496       -0.63025729846990       -0.64753749772811
H            2.59760199404097        2.75302813862776        0.04475825562580
H           -3.25801279907913        1.74022580971987        0.01240234426243
H           -1.87691986142029        2.87720066743068       -0.13931328751718
H           -2.58862717794679        2.11830246942723       -1.58454665925515
H           -1.92701753070233       -2.99007126382045        0.76338324814438
H           -2.24383184291693       -2.86495350711556       -0.97922351878589
H           -0.65362402815950       -3.46435466038253       -0.39429638576901
24
 energy: -42.153744766361 gnorm: 0.002618621441 xtb: 6.6.0 (conda-forge)
C            3.31583572506434        0.02063906719976        0.20166749405735
N            2.06192411332981        0.69589843475623        0.03192514399605
C            1.82378637393603        2.01691273603570       -0.03055285020826
N            0.55180622491183        2.31742536582424       -0.18901486942248
C           -0.07711913044387        1.12258307596580       -0.23155943939782
C            0.83529625382815        0.08604868210693       -0.09683511056995
C            0.45075754918440       -1.29381343511196       -0.09172269554205
O            1.18778444212197       -2.25570314926818        0.01188392795348
N           -0.93297056405593       -1.42440310336106       -0.22319082485054
C           -1.87590589454285       -0.41046600681050       -0.35476398161588
O           -3.05708402200848       -0.65818191114204       -0.45365019918938
N           -1.40799303196975        0.88536963526387       -0.36922783376700
C           -2.34599615819904        1.97649260524546       -0.52789965887526
C           -1.47653591966661       -2.77275254692111       -0.20906303348671
H            3.28356651378892       -0.60420715100076        1.09543450428683
H            4.11321600873079        0.75579199379916        0.29366996045042
H            3.50844701793960       -0.62894609184397       -0.65350364521928
H            2.59856318691118        2.75395008014559        0.04302310745482
H           -3.26123126531732        1.73571740459550        0.01090572006543
H           -1.88364772494465        2.87749073360317       -0.13320235093114
H           -2.58642250507558        2.11842568846517       -1.58303576695245
H           -1.95347704423800       -2.97521867536231        0.75058645672437
H           -2.22054285128070       -2.87396346820655       -0.99708652084245
H           -0.65255729800423       -3.46508996397817       -0.36348753411808
24
 energy: -42.153731406252 gnorm: 0.007170733599 xtb: 6.6.0 (conda-forge)
C            3.31665275441375        0.01933916777758        0.19335867463361
N            2.06317793697800        0.69694591373030        0.02738964053000
C            1.82447316918504        2.01771878601093       -0.03124413121019
N            0.55122282874918        2.31758137593127       -0.18633931678922
C           -0.07615607683132        1.12234507415975       -0.23041593562259
C            0.83658416781875        0.08650904670622       -0.10037472479959
C            0.45481761090027       -1.29355809488405       -0.09531185277719
O            1.19277537348984       -2.25512665914053        0.00394569204444
N           -0.92939003876380       -1.42429320996726       -0.22130063631681
C           -1.87342690311887       -0.41072917720311       -0.34985473461754
O           -3.05438678422503       -0.66182103602120       -0.44327176740038
N           -1.40772329846546        0.88539162027488       -0.36522457666415
C           -2.34797822285913        1.97519455068072       -0.52254948563273
C           -1.47890655497970       -2.77063746533136       -0.20641932983453
H            3.28062362210494       -0.61537064841327        1.08004878731145
H            4.11465662623086        0.75280072137955        0.29627043202988
H            3.51178843118696       -0.62065345965659       -0.66862446703860
H            2.59860765879700        2.75524327202059        0.04275882861555
H           -3.26547983911721        1.72718594573822        0.00912085769106
H           -1.89207718829984        2.87584051153828       -0.11849189908135
H           -2.58153124286754        2.12314608100696       -1.57845772483486
H           -2.03188331252001       -2.93821870460325        0.72493813789492
H           -2.16435589120739       -2.89495448415772       -1.04998505568149
H           -0.64258482659929       -3.46987912757689       -0.27866541244967
24
 energy: -42.153774337741 gnorm: 0.001679029186 xtb: 6.6.0 (conda-forge)
C            3.31674490766596        0.02060675137236        0.19758211998431
N            2.06254298749363        0.69629070088894        0.03008325170408
C            1.82392409282287        2.01699617704680       -0.03255056563322
N            0.55129600265132        2.31678738762797       -0.18913448159173
C           -0.07680167223434        1.12131967132165       -0.23013739516485
C            0.83594341436904        0.08553053360819       -0.09624700111788
C            0.45200357239134       -1.29370658500808       -0.08892788589693
O            1.18790548142207       -2.25660426894017        0.01397718211070
N           -0.93251566740046       -1.42465978347330       -0.21952732342712
C           -1.87505680517283       -0.41081586919084       -0.35279322610467
O           -3.05624932933690       -0.65940287580087       -0.45141742062208
N           -1.40819051533646        0.88563674099929       -0.36640217784534
C           -2.34653396353180        1.97624452361138       -0.52507759763206
C           -1.47756563262960       -2.77263084353604       -0.20878403040590
H            3.28355086732890       -0.60817097020686        1.08842788974393
H            4.11386640306369        0.75556309776727        0.29344888947016
H            3.51024392543319       -0.62498780181460       -0.66039366231881
H            2.59817993842432        2.75471046815969        0.03909659688298
H           -3.26321638412013        1.73213178191534        0.00960056170257
H           -1.88705852302704        2.87662068063035       -0.12527225353146
H           -2.58292651588230        2.12168850686720       -1.58062569270456
H           -1.98794840795960       -2.96246824790696        0.73591550951977
H           -2.19419062255937       -2.88070004783110       -1.02102080252181
H           -0.64844755387550       -3.46597972810760       -0.32852048460008
24
 energy: -42.153794067346 gnorm: 0.001545379573 xtb: 6.6.0 (conda-forge)
C            3.31744198814267        0.02068120696318        0.19422894272464
N            2.06296018467269        0.69655782615669        0.02899494889757
C            1.82412569580896        2.01705531748889       -0.03505289076867
N            0.55122949615006        2.31650966205435       -0.19002309019708
C           -0.07684635591980        1.12075880362610       -0.22842584439963
C            0.83622099008879        0.08531710657275       -0.09462420970285
C            0.45242134564865       -1.29350252423843       -0.08537951990117
O            1.18765462547006       -2.25676033888388        0.01898883344163
N           -0.93257741119007       -1.42484290977926       -0.21621836783492