 Entering Gaussian System
 *********************************************
 Gaussian 98:
 frequency output generated by the xtb code
 *********************************************
                         Standard orientation:
 --------------------------------------------------------------------
  Center     Atomic     Atomic              Coordinates (Angstroms)
  Number     Number      Type              X           Y           Z
 --------------------------------------------------------------------
    1          6             0       -0.000000   -0.000000   -0.000001
    2          1             0       -0.662909    0.851507   -0.083321
    3          1             0       -0.398671   -0.825285   -0.575694
    4          1             0        0.083532   -0.291893    1.038881
    5          1             0        0.978047    0.265671   -0.379865
 --------------------------------------------------------------------
     1 basis functions        1 primitive gaussians
     1 alpha electrons        1 beta electrons

 Harmonic frequencies (cm**-1), IR intensities (km*mol⁻¹),
 Raman scattering activities (A**4/amu), Raman depolarization ratios,
 reduced masses (AMU), force constants (mDyne/A) and normal coordinates:
                      1                      2                      3
                        a                      a                      a 
 Frequencies --  1385.8871              1386.0203              1386.0582
 Red. masses --     2.8512                 2.8511                 2.8511
 Frc consts  --     0.0000                 0.0000                 0.0000
 IR Inten    --    14.3910                14.6255                14.6950
 Raman Activ --     0.0000                 0.0000                 0.0000
 Depolar     --     0.0000                 0.0000                 0.0000
 Atom AN      X      Y      Z        X      Y      Z        X      Y      Z
   1   6     0.02  -0.39  -0.11     0.39   0.05  -0.12    -0.13   0.10  -0.37
   2   1     0.26   0.17   0.19    -0.36  -0.29   0.19     0.01   0.09   0.49
   3   1    -0.22   0.13  -0.13    -0.46   0.06   0.26     0.09  -0.33   0.37
   4   1    -0.03   0.54   0.15    -0.54  -0.03   0.02     0.14   0.03  -0.06
   5   1    -0.08   0.52   0.17     0.02   0.08  -0.05     0.23  -0.12   0.49
                      4                      5                      6
                        a                      a                      a 
 Frequencies --  1557.3223              1557.3427              3088.7714
 Red. masses --     1.0079                 1.0079                 1.0079
 Frc consts  --     0.0000                 0.0000                 0.0000
 IR Inten    --     0.0003                 0.0016                 0.0002
 Raman Activ --     0.0000                 0.0000                 0.0000
 Depolar     --     0.0000                 0.0000                 0.0000
 Atom AN      X      Y      Z        X      Y      Z        X      Y      Z
   1   6     0.00  -0.00   0.00     0.00   0.00   0.00    -0.00  -0.00  -0.00
   2   1    -0.16  -0.08   0.47    -0.36  -0.30  -0.17     0.31  -0.39   0.04
   3   1     0.35   0.07  -0.35    -0.31   0.32  -0.24     0.18   0.38   0.27
   4   1    -0.21   0.43   0.14     0.45   0.21   0.02    -0.04   0.13  -0.48
   5   1     0.02  -0.43  -0.26     0.21  -0.23   0.39    -0.45  -0.12   0.18
                      7                      8                      9
                        a                      a                      a 
 Frequencies --  3102.2373              3102.2976              3102.5514
 Red. masses --     1.9300                 1.9300                 1.9299
 Frc consts  --     0.0000                 0.0000                 0.0000
 IR Inten    --    29.4645                29.3239                28.9730
 Raman Activ --     0.0000                 0.0000                 0.0000
 Depolar     --     0.0000                 0.0000                 0.0000
 Atom AN      X      Y      Z        X      Y      Z        X      Y      Z
   1   6    -0.02   0.07  -0.28    -0.29  -0.01   0.01    -0.01   0.28   0.07
   2   1     0.15  -0.19  -0.02     0.26  -0.39   0.04     0.41  -0.49   0.06
   3   1     0.11   0.25   0.13     0.08   0.25   0.18    -0.27  -0.52  -0.38
   4   1     0.06  -0.22   0.79    -0.04  -0.01   0.02     0.00   0.03   0.04
   5   1    -0.28  -0.07   0.07     0.69   0.20  -0.28    -0.10   0.01   0.05
