 Entering Gaussian System
 *********************************************
 Gaussian 98:
 frequency output generated by the xtb code
 *********************************************
                         Standard orientation:
 --------------------------------------------------------------------
  Center     Atomic     Atomic              Coordinates (Angstroms)
  Number     Number      Type              X           Y           Z
 --------------------------------------------------------------------
    1          6             0        2.499512   -0.226542   -0.227772
    2          6             0        1.301113    0.062436    0.674709
    3          6             0       -0.021946   -0.076490   -0.084767
    4          6             0       -1.221859    0.213722    0.822191
    5          6             0       -2.542758    0.075834    0.066975
    6          1             0        2.444963   -1.242578   -0.621499
    7          1             0        3.428249   -0.121483    0.334182
    8          1             0        2.521483    0.469092   -1.067972
    9          1             0        1.384828    1.078011    1.076445
   10          1             0        1.308392   -0.631351    1.522294
   11          1             0       -0.106350   -1.091988   -0.486961
   12          1             0       -0.029927    0.617069   -0.932727
   13          1             0       -1.136812    1.229212    1.223864
   14          1             0       -1.213266   -0.480154    1.669690
   15          1             0       -3.380807    0.286830    0.732210
   16          1             0       -2.655684   -0.936694   -0.323358
   17          1             0       -2.579117    0.774981   -0.769803
 --------------------------------------------------------------------
     1 basis functions        1 primitive gaussians
     1 alpha electrons        1 beta electrons

 Harmonic frequencies (cm**-1), IR intensities (km*mol⁻¹),
 Raman scattering activities (A**4/amu), Raman depolarization ratios,
 reduced masses (AMU), force constants (mDyne/A) and normal coordinates:
                      1                      2                      3
                        a                      a                      a 
 Frequencies --    90.9955                92.6029               178.6998
 Red. masses --     7.7995                 5.3166                 8.3093
 Frc consts  --     0.0000                 0.0000                 0.0000
 IR Inten    --     0.0152                 0.0000                 0.4779
 Raman Activ --     0.0000                 0.0000                 0.0000
 Depolar     --     0.0000                 0.0000                 0.0000
 Atom AN      X      Y      Z        X      Y      Z        X      Y      Z
   1   6     0.02   0.35  -0.09     0.01   0.18  -0.05    -0.26  -0.07  -0.33
   2   6    -0.00  -0.10   0.02    -0.02  -0.39   0.10     0.15   0.04   0.19
   3   6    -0.03  -0.57   0.15     0.00   0.00  -0.00     0.03   0.11   0.41
   4   6    -0.00  -0.09   0.02     0.02   0.39  -0.10    -0.12   0.06   0.20
   5   6     0.02   0.34  -0.09    -0.01  -0.19   0.05     0.21  -0.10  -0.36
   6   1     0.11   0.09  -0.02    -0.01   0.14  -0.23    -0.17  -0.02  -0.10
   7   1     0.01   0.20  -0.05    -0.00  -0.09   0.02     0.01  -0.06  -0.22
   8   1    -0.10   0.10  -0.03     0.03   0.23   0.14    -0.17  -0.02  -0.10
   9   1    -0.10  -0.01  -0.00    -0.01  -0.18   0.20     0.11   0.01   0.05
  10   1     0.09  -0.02   0.01    -0.00  -0.25  -0.09     0.11   0.01   0.05
  11   1    -0.00  -0.22   0.19    -0.07   0.01   0.00     0.01   0.03   0.11
  12   1    -0.02  -0.29  -0.06     0.07  -0.00  -0.00     0.01   0.03   0.12
  13   1     0.09  -0.03  -0.02    -0.02   0.18  -0.20    -0.10   0.02   0.06
  14   1    -0.09  -0.01   0.02     0.04   0.25   0.08    -0.10   0.02   0.06
  15   1     0.01   0.20  -0.05     0.00   0.09  -0.02    -0.04  -0.06  -0.22
  16   1    -0.10   0.11  -0.01    -0.00  -0.14   0.24     0.15  -0.04  -0.11
  17   1     0.10   0.09  -0.04    -0.01  -0.24  -0.14     0.15  -0.04  -0.11
                      4                      5                      6
                        a                      a                      a 
 Frequencies --   204.8128               207.4575               389.6178
 Red. masses --     1.8000                 2.3859                 9.4605
 Frc consts  --     0.0000                 0.0000                 0.0000
 IR Inten    --     0.0193                 0.0000                 0.0445
 Raman Activ --     0.0000                 0.0000                 0.0000
 Depolar     --     0.0000                 0.0000                 0.0000
 Atom AN      X      Y      Z        X      Y      Z        X      Y      Z
   1   6     0.00   0.02  -0.00     0.00   0.04  -0.01     0.46  -0.05  -0.10
   2   6    -0.01  -0.12   0.03    -0.01  -0.24   0.06     0.35  -0.04  -0.08
   3   6     0.01   0.19  -0.05     0.00   0.00  -0.00     0.02   0.06   0.24
   4   6    -0.01  -0.12   0.03     0.01   0.24  -0.06    -0.36   0.01  -0.03
   5   6     0.00   0.02  -0.00    -0.00  -0.04   0.01    -0.46   0.01  -0.05
   6   1     0.21  -0.11   0.27     0.23  -0.09   0.24     0.16  -0.02  -0.03
   7   1     0.02   0.37  -0.10     0.02   0.39  -0.10     0.11  -0.00   0.01
   8   1    -0.22  -0.21  -0.19    -0.24  -0.18  -0.17     0.16  -0.01  -0.03
   9   1     0.01  -0.06   0.08    -0.01  -0.10   0.09     0.15  -0.01  -0.02
  10   1    -0.02  -0.09  -0.04    -0.00  -0.13  -0.03     0.15  -0.01  -0.02
  11   1    -0.00   0.11  -0.14    -0.05   0.00   0.00     0.00   0.02   0.06
  12   1     0.01   0.16   0.07     0.05  -0.00  -0.00     0.00   0.01   0.06
  13   1    -0.01  -0.06   0.08    -0.01   0.10  -0.09    -0.15   0.00  -0.00
  14   1     0.00  -0.09  -0.04     0.02   0.13   0.03    -0.15   0.01  -0.00
  15   1     0.02   0.38  -0.10    -0.02  -0.38   0.10    -0.10   0.01   0.02
  16   1    -0.19  -0.09   0.30     0.21   0.07  -0.27    -0.16   0.00  -0.01
  17   1     0.17  -0.24  -0.21    -0.19   0.21   0.20    -0.16   0.01  -0.01
                      7                      8                      9
                        a                      a                      a 
 Frequencies --   390.3717               726.1331               775.3572
 Red. masses --     8.0669                 1.6875                 2.1754
 Frc consts  --     0.0000                 0.0000                 0.0000
 IR Inten    --     0.0064                22.8538                 0.0000
 Raman Activ --     0.0000                 0.0000                 0.0000
 Depolar     --     0.0000                 0.0000                 0.0000
 Atom AN      X      Y      Z        X      Y      Z        X      Y      Z
   1   6    -0.26  -0.00  -0.06     0.00   0.01  -0.00    -0.00  -0.05   0.01
   2   6     0.14   0.10   0.39     0.01   0.12  -0.03    -0.01  -0.22   0.06
   3   6     0.36  -0.02  -0.02     0.01   0.17  -0.04    -0.00   0.00  -0.00
   4   6     0.07  -0.11  -0.40     0.01   0.12  -0.03     0.01   0.22  -0.06
   5   6    -0.26   0.04   0.09     0.00   0.01  -0.00     0.00   0.05  -0.01
   6   1    -0.19   0.01  -0.02    -0.08  -0.03   0.10     0.18   0.05  -0.18
   7   1     0.03  -0.05  -0.18    -0.00  -0.04   0.01     0.00   0.10  -0.03
   8   1    -0.20   0.00  -0.02     0.08  -0.08  -0.07    -0.17   0.15   0.13
   9   1     0.05   0.03   0.10     0.07  -0.11   0.32     0.02   0.09  -0.36
  10   1     0.05   0.02   0.10    -0.08  -0.24  -0.23    -0.00   0.26   0.27
  11   1     0.20  -0.01  -0.01     0.02  -0.13   0.42    -0.16   0.01   0.01
  12   1     0.20  -0.01  -0.01    -0.04  -0.32  -0.30     0.16  -0.01  -0.01
  13   1     0.03  -0.03  -0.11    -0.04  -0.10   0.33     0.05  -0.10   0.36
  14   1     0.03  -0.02  -0.11     0.02  -0.25  -0.24    -0.07  -0.25  -0.26
  15   1     0.05   0.04   0.18    -0.00  -0.04   0.01    -0.00  -0.10   0.03
  16   1    -0.19   0.02   0.04     0.09  -0.04   0.09     0.19  -0.07   0.16
  17   1    -0.19   0.02   0.04    -0.10  -0.07  -0.06    -0.20  -0.12  -0.11
                     10                     11                     12
                        a                      a                      a 
 Frequencies --   875.0314               902.8073               955.0746
 Red. masses --     2.4707                 5.6616                 5.7974
 Frc consts  --     0.0000                 0.0000                 0.0000
 IR Inten    --     5.8494                 6.4145                10.3485
 Raman Activ --     0.0000                 0.0000                 0.0000
 Depolar     --     0.0000                 0.0000                 0.0000
 Atom AN      X      Y      Z        X      Y      Z        X      Y      Z
   1   6    -0.01  -0.13   0.03     0.23   0.01   0.07     0.33  -0.01   0.01
   2   6    -0.00  -0.09   0.02     0.11   0.05   0.22    -0.03   0.05   0.19
   3   6     0.01   0.27  -0.07    -0.03  -0.11  -0.41    -0.37   0.02   0.02
   4   6    -0.00  -0.09   0.02    -0.08   0.06   0.23    -0.06  -0.05  -0.18
   5   6    -0.01  -0.13   0.03    -0.22   0.03   0.09     0.33  -0.03  -0.04
   6   1     0.23   0.04  -0.21    -0.18   0.02  -0.01    -0.12   0.02  -0.03
   7   1     0.01   0.13  -0.03     0.28  -0.10  -0.32     0.28  -0.09  -0.31
   8   1    -0.22   0.16   0.16    -0.18  -0.01  -0.00    -0.12  -0.02  -0.02
   9   1     0.22   0.01  -0.12    -0.09   0.02   0.06    -0.10   0.02   0.07
  10   1    -0.22   0.09   0.10    -0.09   0.02   0.07    -0.10   0.03   0.06
  11   1     0.01  -0.05   0.29    -0.01  -0.03  -0.11    -0.20   0.01   0.01
  12   1    -0.02  -0.19  -0.23    -0.01  -0.03  -0.11    -0.20   0.01   0.01
  13   1    -0.23   0.04  -0.10     0.10   0.01   0.05    -0.11  -0.00  -0.05
  14   1     0.24   0.06   0.07     0.10   0.01   0.05    -0.11  -0.01  -0.05
  15   1     0.01   0.13  -0.03    -0.32  -0.06  -0.28     0.33   0.06   0.27
  16   1    -0.25   0.07  -0.19     0.17   0.00  -0.03    -0.11  -0.00   0.05
  17   1     0.25   0.13   0.13     0.17  -0.03  -0.02    -0.11   0.04   0.04
                     13                     14                     15
                        a                      a                      a 
 Frequencies --   986.7795              1058.3719              1076.0281
 Red. masses --     2.0511                 7.7076                 8.4765
 Frc consts  --     0.0000                 0.0000                 0.0000
 IR Inten    --     0.0003                 5.1597                 0.0399
 Raman Activ --     0.0000                 0.0000                 0.0000
 Depolar     --     0.0000                 0.0000                 0.0000
 Atom AN      X      Y      Z        X      Y      Z        X      Y      Z
   1   6    -0.01  -0.16   0.04     0.13  -0.09  -0.33    -0.24   0.07   0.25
   2   6     0.01   0.14  -0.04    -0.23   0.09   0.32     0.41  -0.06  -0.15
   3   6    -0.00   0.00   0.00    -0.12   0.01   0.01    -0.02  -0.06  -0.23
   4   6    -0.01  -0.14   0.04    -0.28  -0.06  -0.29    -0.42  -0.01  -0.10
   5   6     0.01   0.16  -0.04     0.18   0.07   0.31     0.27   0.04   0.22
   6   1     0.19   0.02  -0.18     0.24  -0.04  -0.08    -0.13   0.02   0.08
   7   1     0.00   0.11  -0.03    -0.09   0.03   0.12    -0.05   0.01   0.05
   8   1    -0.18   0.12   0.14     0.24  -0.02  -0.08    -0.13   0.03   0.08
   9   1     0.29  -0.03   0.10     0.01   0.02   0.09     0.22  -0.02  -0.05
  10   1    -0.29  -0.05  -0.08     0.01   0.03   0.09     0.22  -0.03  -0.05
  11   1     0.35  -0.02  -0.02     0.15  -0.01  -0.01    -0.01  -0.01  -0.08
  12   1    -0.35   0.02   0.02     0.15  -0.01  -0.01    -0.01  -0.03  -0.08
  13   1     0.27  -0.00  -0.13    -0.00  -0.02  -0.09    -0.22   0.01  -0.03
  14   1    -0.27   0.08   0.11    -0.00  -0.03  -0.09    -0.22  -0.00  -0.03
  15   1    -0.00  -0.11   0.03    -0.11  -0.02  -0.10     0.06   0.01   0.04
  16   1     0.20  -0.05   0.15     0.25   0.01   0.05     0.14   0.00   0.07
  17   1    -0.21  -0.10  -0.12     0.25  -0.01   0.05     0.14   0.02   0.06
                     16                     17                     18
                        a                      a                      a 
 Frequencies --  1086.0538              1147.3412              1191.7055
 Red. masses --     6.5879                 7.8658                 6.2599
 Frc consts  --     0.0000                 0.0000                 0.0000
 IR Inten    --     3.8854                 5.0609                 2.1909
 Raman Activ --     0.0000                 0.0000                 0.0000
 Depolar     --     0.0000                 0.0000                 0.0000
 Atom AN      X      Y      Z        X      Y      Z        X      Y      Z
   1   6     0.12  -0.01  -0.04     0.08   0.05   0.21    -0.01  -0.22   0.06
   2   6    -0.29  -0.03  -0.16    -0.09  -0.09  -0.37     0.02   0.34  -0.09
   3   6     0.49  -0.03  -0.03     0.03   0.11   0.44    -0.01  -0.33   0.09
   4   6    -0.27   0.06   0.20     0.03  -0.10  -0.38     0.02   0.34  -0.09
   5   6     0.12  -0.00   0.02    -0.04   0.06   0.22    -0.01  -0.22   0.06
   6   1    -0.03   0.01  -0.03    -0.19   0.04   0.02     0.16   0.01  -0.17
   7   1     0.09  -0.03  -0.10     0.16  -0.05  -0.17     0.00   0.10  -0.03
   8   1    -0.03  -0.02  -0.03    -0.19  -0.01   0.03    -0.15   0.10   0.14
   9   1    -0.29   0.01  -0.04    -0.10  -0.02  -0.10     0.02  -0.01   0.22
  10   1    -0.29  -0.00  -0.04    -0.10  -0.02  -0.10    -0.02  -0.11  -0.19
  11   1     0.23  -0.01  -0.01     0.01   0.03   0.12    -0.01   0.01  -0.22
  12   1     0.23  -0.01  -0.01     0.01   0.04   0.12     0.02   0.12   0.18
  13   1    -0.28   0.03   0.08     0.09  -0.03  -0.11     0.01  -0.01   0.22
  14   1    -0.28   0.04   0.07     0.09  -0.03  -0.11    -0.01  -0.11  -0.19
  15   1     0.10   0.02   0.09    -0.18  -0.03  -0.15     0.00   0.10  -0.03
  16   1    -0.03  -0.00   0.04     0.19   0.01  -0.00    -0.17   0.03  -0.15
  17   1    -0.03   0.02   0.03     0.19  -0.03   0.01     0.18   0.08   0.12
                     19                     20                     21
                        a                      a                      a 
 Frequencies --  1238.5650              1271.8322              1279.2137
 Red. masses --     3.8452                 3.6571                 2.5171
 Frc consts  --     0.0000                 0.0000                 0.0000
 IR Inten    --     0.0001                 1.2906                 0.2696
 Raman Activ --     0.0000                 0.0000                 0.0000
 Depolar     --     0.0000                 0.0000                 0.0000
 Atom AN      X      Y      Z        X      Y      Z        X      Y      Z
   1   6     0.01   0.24  -0.06     0.08   0.03   0.12     0.01   0.15  -0.04
   2   6    -0.01  -0.25   0.06    -0.21  -0.02  -0.11     0.00   0.01  -0.00
   3   6     0.00  -0.00   0.00    -0.28   0.02   0.02    -0.01  -0.29   0.07
   4   6     0.01   0.25  -0.06    -0.19   0.04   0.14     0.00   0.01  -0.00
   5   6    -0.01  -0.24   0.06     0.06  -0.04  -0.13     0.01   0.15  -0.04
   6   1    -0.16  -0.00   0.17    -0.07   0.03  -0.01    -0.09   0.00   0.09
   7   1    -0.00  -0.10   0.03     0.11  -0.03  -0.11    -0.00  -0.04   0.01
   8   1     0.15  -0.10  -0.14    -0.07  -0.02   0.00     0.09  -0.05  -0.08
   9   1     0.27  -0.01  -0.16     0.26  -0.03  -0.05     0.43  -0.03  -0.02
  10   1    -0.27   0.09   0.14     0.26  -0.02  -0.05    -0.43   0.02   0.02
  11   1     0.24  -0.01  -0.01     0.45  -0.03  -0.03    -0.01  -0.01  -0.16
  12   1    -0.24   0.01   0.01     0.45  -0.03  -0.03     0.01   0.07   0.14
  13   1     0.29  -0.02   0.13     0.27  -0.01   0.02    -0.43   0.02   0.03
  14   1    -0.29  -0.05  -0.11     0.27  -0.01   0.02     0.43  -0.03  -0.03
  15   1     0.00   0.10  -0.03     0.12   0.02   0.10    -0.00  -0.04   0.01
  16   1    -0.17   0.02  -0.15    -0.07  -0.02   0.02     0.10  -0.01   0.08
  17   1     0.18   0.08   0.12    -0.07   0.03   0.01    -0.10  -0.04  -0.07
                     22                     23                     24
                        a                      a                      a 
 Frequencies --  1280.8161              1340.6864              1374.7773
 Red. masses --     1.5659                 4.7565                 6.0372
 Frc consts  --     0.0000                 0.0000                 0.0000
 IR Inten    --     0.0000                 1.2606                 0.5379
 Raman Activ --     0.0000                 0.0000                 0.0000
 Depolar     --     0.0000                 0.0000                 0.0000
 Atom AN      X      Y      Z        X      Y      Z        X      Y      Z
   1   6    -0.00  -0.04   0.01     0.08   0.02   0.08     0.05   0.01   0.04
   2   6    -0.01  -0.15   0.04    -0.39   0.02   0.02    -0.34   0.02   0.04
   3   6    -0.00   0.00  -0.00    -0.00  -0.02  -0.06     0.46  -0.03  -0.03
   4   6     0.01   0.15  -0.04     0.39  -0.02  -0.02    -0.34   0.02   0.00
   5   6     0.00   0.04  -0.01    -0.06   0.03   0.09     0.05  -0.01  -0.04
   6   1     0.03  -0.01  -0.02    -0.01   0.03  -0.05     0.00   0.02  -0.05
   7   1    -0.00  -0.01   0.00     0.10  -0.03  -0.11     0.05  -0.02  -0.05
   8   1    -0.03   0.01   0.02    -0.01  -0.05  -0.03    -0.00  -0.04  -0.03
   9   1    -0.30   0.01  -0.06     0.38  -0.02  -0.02     0.25  -0.01  -0.02
  10   1     0.31   0.02   0.05     0.38  -0.02  -0.02     0.25  -0.02  -0.02
  11   1     0.53  -0.03  -0.03    -0.00  -0.01   0.01    -0.36   0.02   0.02
  12   1    -0.53   0.03   0.03     0.00   0.01  -0.00    -0.36   0.02   0.02
  13   1    -0.29   0.02   0.10    -0.38   0.02   0.02     0.25  -0.02  -0.01
  14   1     0.29  -0.05  -0.09    -0.38   0.02   0.02     0.26  -0.01  -0.01
  15   1     0.00   0.01  -0.00    -0.12  -0.02  -0.10     0.06   0.01   0.05
  16   1     0.03   0.00   0.01     0.00   0.03  -0.05     0.00  -0.02   0.05
  17   1    -0.03  -0.00  -0.01    -0.00  -0.05  -0.03     0.01   0.04   0.03
                     25                     26                     27
                        a                      a                      a 
 Frequencies --  1395.7205              1396.6233              1466.8269
 Red. masses --     3.4904                 3.5832                 1.8325
 Frc consts  --     0.0000                 0.0000                 0.0000
 IR Inten    --    14.3803                 6.3788                 0.1005
 Raman Activ --     0.0000                 0.0000                 0.0000
 Depolar     --     0.0000                 0.0000                 0.0000
 Atom AN      X      Y      Z        X      Y      Z        X      Y      Z
   1   6    -0.27   0.06   0.18     0.27  -0.06  -0.18    -0.02  -0.01  -0.04
   2   6     0.06  -0.01  -0.02    -0.08   0.01   0.03     0.01   0.04   0.14
   3   6    -0.02   0.00   0.00    -0.00  -0.00  -0.02    -0.01  -0.04  -0.17
   4   6     0.06   0.00   0.01     0.08   0.00   0.02     0.01   0.04   0.14
   5   6    -0.29  -0.03  -0.15    -0.29  -0.03  -0.15     0.02  -0.01  -0.04
   6   1     0.32   0.06  -0.16    -0.32  -0.06   0.16     0.04  -0.06   0.13
   7   1     0.17  -0.09  -0.30    -0.17   0.09   0.30     0.03  -0.02  -0.06
   8   1     0.31  -0.16  -0.10    -0.31   0.16   0.10     0.04   0.11   0.09
   9   1    -0.03   0.00  -0.01     0.04  -0.00   0.01    -0.01   0.14  -0.32
  10   1    -0.03  -0.00  -0.01     0.05   0.00   0.01    -0.02  -0.27  -0.21
  11   1     0.00  -0.00  -0.00    -0.00  -0.00  -0.00     0.01  -0.16   0.38
  12   1     0.00  -0.00  -0.00     0.00   0.00  -0.00     0.03   0.33   0.25
  13   1    -0.03   0.00   0.01    -0.04   0.00   0.01    -0.02   0.14  -0.32
  14   1    -0.02   0.01   0.01    -0.04   0.01   0.01    -0.03  -0.27  -0.21
  15   1     0.21   0.06   0.28     0.21   0.06   0.27    -0.04  -0.01  -0.06
  16   1     0.33  -0.10   0.12     0.32  -0.10   0.12    -0.03  -0.05   0.14
  17   1     0.34   0.12   0.06     0.33   0.12   0.06    -0.02   0.11   0.09
                     28                     29                     30
                        a                      a                      a 
 Frequencies --  1472.6472              1480.5882              1480.8140
 Red. masses --     1.7436                 1.4915                 1.4931
 Frc consts  --     0.0000                 0.0000                 0.0000
 IR Inten    --     1.6713                16.9226                 0.0072
 Raman Activ --     0.0000                 0.0000                 0.0000
 Depolar     --     0.0000                 0.0000                 0.0000
 Atom AN      X      Y      Z        X      Y      Z        X      Y      Z
   1   6     0.04   0.02   0.07    -0.01  -0.14   0.03     0.01   0.14  -0.04
   2   6     0.01  -0.04  -0.16    -0.00  -0.03   0.01     0.00   0.04  -0.01
   3   6     0.01  -0.00  -0.00     0.00   0.01   0.00     0.00  -0.00  -0.00
   4   6     0.03   0.04   0.16    -0.00  -0.03   0.01    -0.00  -0.03   0.01
   5   6     0.03  -0.02  -0.07    -0.01  -0.14   0.04    -0.01  -0.14   0.04
   6   1    -0.06   0.10  -0.23    -0.31   0.04  -0.09     0.32  -0.04   0.10
   7   1    -0.06   0.03   0.11     0.02   0.48  -0.13    -0.02  -0.49   0.13
   8   1    -0.07  -0.19  -0.15     0.32   0.06   0.07    -0.33  -0.06  -0.07
   9   1    -0.00  -0.16   0.37     0.01  -0.00  -0.01    -0.01   0.00   0.01
  10   1     0.02   0.32   0.25    -0.01   0.00   0.01     0.01  -0.00  -0.01
  11   1     0.00  -0.00  -0.00    -0.00   0.00  -0.00    -0.02   0.00   0.00
  12   1     0.00  -0.00  -0.00    -0.00  -0.01  -0.01     0.02  -0.00  -0.00
  13   1    -0.03   0.16  -0.37    -0.01  -0.00  -0.01    -0.01  -0.00  -0.01
  14   1    -0.05  -0.31  -0.24     0.01   0.00   0.01     0.01   0.00   0.01
  15   1    -0.08  -0.02  -0.10     0.02   0.50  -0.13     0.02   0.48  -0.12
  16   1    -0.04  -0.09   0.23     0.31  -0.00  -0.13     0.30   0.00  -0.13
  17   1    -0.03   0.20   0.16    -0.31   0.10   0.11    -0.30   0.09   0.11
                     31                     32                     33
                        a                      a                      a 
 Frequencies --  1481.5137              1487.3942              1489.0031
 Red. masses --     1.7853                 1.8309                 1.9316
 Frc consts  --     0.0000                 0.0000                 0.0000
 IR Inten    --     0.0542                 3.0918                22.5559
 Raman Activ --     0.0000                 0.0000                 0.0000
 Depolar     --     0.0000                 0.0000                 0.0000
 Atom AN      X      Y      Z        X      Y      Z        X      Y      Z
   1   6    -0.05  -0.02  -0.09     0.07   0.02   0.10     0.06   0.02   0.07
   2   6    -0.05   0.01   0.04     0.05   0.03   0.13     0.02   0.04   0.15
   3   6     0.01   0.05   0.20    -0.05   0.00   0.00     0.01   0.03   0.13
   4   6     0.05   0.01   0.03     0.03  -0.04  -0.14     0.00   0.04   0.15
   5   6     0.04  -0.02  -0.09     0.06  -0.03  -0.10    -0.05   0.02   0.08
   6   1     0.08  -0.13   0.29    -0.09   0.14  -0.34    -0.07   0.11  -0.25
   7   1     0.08  -0.05  -0.15    -0.09   0.05   0.18    -0.07   0.04   0.13
   8   1     0.09   0.24   0.20    -0.11  -0.28  -0.23    -0.08  -0.21  -0.17
   9   1     0.02   0.04  -0.11    -0.03   0.11  -0.23    -0.02   0.13  -0.28
  10   1     0.01  -0.09  -0.07    -0.04  -0.21  -0.15    -0.04  -0.24  -0.18
  11   1    -0.01   0.18  -0.40     0.01  -0.00  -0.00    -0.01   0.12  -0.28
  12   1    -0.04  -0.35  -0.26     0.01  -0.00  -0.00    -0.02  -0.24  -0.18
  13   1    -0.02   0.05  -0.11    -0.02  -0.11   0.24     0.00   0.13  -0.28
  14   1    -0.03  -0.09  -0.07    -0.00   0.21   0.15    -0.01  -0.25  -0.18
  15   1    -0.11  -0.04  -0.14    -0.12  -0.04  -0.16     0.08   0.03   0.12
  16   1    -0.06  -0.12   0.30    -0.07  -0.13   0.35     0.05   0.10  -0.26
  17   1    -0.04   0.25   0.20    -0.05   0.29   0.24     0.03  -0.22  -0.17
                     34                     35                     36
                        a                      a                      a 
 Frequencies --  2998.7799              3003.1951              3005.8073
 Red. masses --     1.4967                 1.5223                 1.5439
 Frc consts  --     0.0000                 0.0000                 0.0000
 IR Inten    --     0.7325                 0.0314                64.6625
 Raman Activ --     0.0000                 0.0000                 0.0000
 Depolar     --     0.0000                 0.0000                 0.0000
 Atom AN      X      Y      Z        X      Y      Z        X      Y      Z
   1   6    -0.00  -0.00  -0.00     0.00   0.00   0.01    -0.00  -0.00  -0.01
   2   6     0.01   0.02   0.07    -0.01  -0.04  -0.15     0.01   0.03   0.13
   3   6    -0.01  -0.05  -0.18    -0.00  -0.00   0.00     0.01   0.03   0.11
   4   6     0.01   0.02   0.07     0.01   0.04   0.15     0.01   0.03   0.13
   5   6     0.00  -0.00  -0.00     0.00  -0.00  -0.01     0.00  -0.00  -0.01
   6   1    -0.00   0.01   0.00    -0.00  -0.03  -0.01     0.00   0.03   0.01
   7   1     0.01   0.00   0.01    -0.02  -0.00  -0.01     0.01   0.00   0.01
   8   1    -0.00  -0.00   0.00     0.00   0.02  -0.02    -0.00  -0.02   0.02
   9   1    -0.02  -0.23  -0.08     0.04   0.46   0.16    -0.03  -0.40  -0.14
  10   1    -0.00   0.16  -0.18     0.00  -0.32   0.37    -0.00   0.28  -0.31
  11   1     0.05   0.56   0.20    -0.00   0.00   0.00    -0.03  -0.32  -0.11
  12   1     0.00  -0.40   0.45    -0.00   0.00  -0.00    -0.00   0.23  -0.26
  13   1    -0.02  -0.23  -0.08    -0.04  -0.46  -0.16    -0.03  -0.40  -0.14
  14   1    -0.00   0.16  -0.18    -0.00   0.32  -0.36    -0.00   0.28  -0.32
  15   1    -0.01   0.00   0.01    -0.01   0.00   0.01    -0.01   0.00   0.01
  16   1     0.00   0.01   0.00     0.00   0.03   0.01     0.00   0.03   0.01
  17   1     0.00  -0.00   0.00     0.00  -0.02   0.02     0.00  -0.02   0.02
                     37                     38                     39
                        a                      a                      a 
 Frequencies --  3015.2851              3024.0780              3029.7714
 Red. masses --     1.9476                 1.9989                 1.2725
 Frc consts  --     0.0000                 0.0000                 0.0000
 IR Inten    --     0.1564                 0.0001                18.8524
 Raman Activ --     0.0000                 0.0000                 0.0000
 Depolar     --     0.0000                 0.0000                 0.0000
 Atom AN      X      Y      Z        X      Y      Z        X      Y      Z
   1   6     0.00   0.01  -0.00     0.00   0.02  -0.01    -0.08   0.02   0.07
   2   6    -0.01  -0.13   0.03    -0.01  -0.20   0.05    -0.00   0.00   0.01
   3   6     0.01   0.22  -0.06     0.00  -0.00   0.00     0.00  -0.00  -0.00
   4   6    -0.01  -0.13   0.03     0.01   0.20  -0.05    -0.00  -0.00  -0.01
   5   6     0.00   0.01  -0.00    -0.00  -0.02   0.01    -0.09  -0.01  -0.06
   6   1    -0.00  -0.03  -0.01    -0.00  -0.06  -0.03    -0.03  -0.38  -0.14
   7   1     0.00   0.00  -0.00    -0.00   0.00  -0.00     0.31   0.04   0.20
   8   1    -0.00  -0.02   0.03    -0.00  -0.04   0.05    -0.00   0.27  -0.31
   9   1     0.02   0.28   0.12     0.04   0.43   0.18    -0.00  -0.01  -0.00
  10   1    -0.00   0.19  -0.24    -0.00   0.29  -0.37    -0.00   0.01  -0.01
  11   1    -0.04  -0.47  -0.20    -0.00   0.00   0.00    -0.00   0.00   0.00
  12   1     0.00  -0.32   0.40     0.00   0.00  -0.00    -0.00  -0.00   0.00
  13   1     0.02   0.28   0.12    -0.04  -0.43  -0.18     0.00   0.01   0.01
  14   1    -0.00   0.19  -0.24     0.00  -0.29   0.37    -0.00  -0.01   0.01
  15   1     0.00   0.00  -0.00    -0.00  -0.00   0.00     0.29  -0.08  -0.25
  16   1    -0.00  -0.03  -0.01     0.01   0.06   0.03     0.03   0.39   0.14
  17   1     0.00  -0.02   0.03    -0.00   0.04  -0.05     0.00  -0.27   0.32
                     40                     41                     42
                        a                      a                      a 
 Frequencies --  3030.1360              3031.5568              3072.5076
 Red. masses --     1.2729                 2.0492                 1.9992
 Frc consts  --     0.0000                 0.0000                 0.0000
 IR Inten    --    11.1376                70.1534                 0.0211
 Raman Activ --     0.0000                 0.0000                 0.0000
 Depolar     --     0.0000                 0.0000                 0.0000
 Atom AN      X      Y      Z        X      Y      Z        X      Y      Z
   1   6    -0.08   0.02   0.07    -0.00  -0.02   0.01    -0.01  -0.20   0.05
   2   6    -0.00   0.00   0.01     0.01   0.16  -0.04    -0.00  -0.03   0.01
   3   6     0.00   0.00   0.01     0.01   0.19  -0.05     0.00   0.00  -0.00
   4   6     0.00   0.00   0.01     0.01   0.16  -0.04     0.00   0.03  -0.01
   5   6     0.09   0.01   0.06    -0.00  -0.02   0.01     0.01   0.21  -0.05
   6   1    -0.03  -0.39  -0.14     0.00   0.06   0.03     0.03   0.43   0.18
   7   1     0.32   0.04   0.21    -0.00  -0.00  -0.00    -0.00  -0.02   0.01
   8   1    -0.00   0.27  -0.32     0.00   0.04  -0.05     0.00   0.29  -0.36
   9   1    -0.00  -0.02  -0.01    -0.03  -0.33  -0.13     0.01   0.06   0.02
  10   1    -0.00   0.01  -0.01     0.00  -0.22   0.28    -0.00   0.04  -0.05
  11   1    -0.00  -0.02  -0.01    -0.03  -0.40  -0.16     0.00  -0.00  -0.00
  12   1    -0.00   0.01  -0.01     0.00  -0.27   0.34    -0.00  -0.00   0.00
  13   1    -0.00  -0.02  -0.01    -0.03  -0.33  -0.14    -0.00  -0.06  -0.02
  14   1     0.00   0.01  -0.01     0.00  -0.22   0.28    -0.00  -0.04   0.05
  15   1    -0.28   0.07   0.24     0.00  -0.00  -0.00     0.00   0.02  -0.01
  16   1    -0.03  -0.38  -0.14     0.01   0.06   0.03    -0.05  -0.44  -0.18
  17   1    -0.00   0.27  -0.31    -0.00   0.04  -0.05     0.01  -0.30   0.38
                     43                     44                     45
                        a                      a                      a 
 Frequencies --  3072.7089              3075.1412              3075.2834
 Red. masses --     1.9999                 1.9920                 1.9906
 Frc consts  --     0.0000                 0.0000                 0.0000
 IR Inten    --    55.8076                13.8280                31.1466
 Raman Activ --     0.0000                 0.0000                 0.0000
 Depolar     --     0.0000                 0.0000                 0.0000
 Atom AN      X      Y      Z        X      Y      Z        X      Y      Z
   1   6     0.01   0.21  -0.05     0.13   0.03   0.15     0.14   0.04   0.17
   2   6     0.00   0.03  -0.01     0.00   0.00   0.01     0.00   0.00   0.01
   3   6     0.00   0.01  -0.00    -0.00   0.00   0.00    -0.00  -0.00  -0.00
   4   6     0.00   0.03  -0.01     0.00  -0.00  -0.01    -0.00   0.00   0.01
   5   6     0.01   0.20  -0.05     0.11  -0.05  -0.18    -0.10   0.05   0.16
   6   1    -0.03  -0.44  -0.18    -0.00  -0.23  -0.07    -0.00  -0.26  -0.08
   7   1     0.00   0.02  -0.00    -0.46  -0.05  -0.28    -0.51  -0.06  -0.31
   8   1    -0.00  -0.30   0.38     0.02   0.17  -0.18     0.02   0.18  -0.20
   9   1    -0.01  -0.07  -0.03    -0.00  -0.02  -0.01    -0.00  -0.03  -0.01
  10   1     0.00  -0.04   0.05    -0.00   0.02  -0.02    -0.00   0.02  -0.02
  11   1    -0.00  -0.02  -0.01    -0.00   0.00   0.00    -0.00  -0.00  -0.00
  12   1     0.00  -0.01   0.02    -0.00  -0.00   0.00    -0.00   0.00  -0.00
  13   1    -0.00  -0.06  -0.02     0.00   0.03   0.01    -0.00  -0.03  -0.01
  14   1    -0.00  -0.04   0.05    -0.00  -0.02   0.02     0.00   0.02  -0.02
  15   1     0.00   0.02  -0.00    -0.46   0.11   0.36     0.41  -0.10  -0.33
  16   1    -0.04  -0.43  -0.17     0.04   0.26   0.08    -0.03  -0.23  -0.07
  17   1     0.01  -0.29   0.36     0.02  -0.19   0.20    -0.02   0.17  -0.18
