 Entering Gaussian System
 *********************************************
 Gaussian 98:
 frequency output generated by the xtb code
 *********************************************
                         Standard orientation:
 --------------------------------------------------------------------
  Center     Atomic     Atomic              Coordinates (Angstroms)
  Number     Number      Type              X           Y           Z
 --------------------------------------------------------------------
    1          6             0        1.148819   -0.768911   -0.078342
    2          6             0        1.242782    0.610433   -0.002684
    3          6             0        0.093963    1.379344    0.075658
    4          6             0       -1.148819    0.768911    0.078342
    5          6             0       -1.242782   -0.610433    0.002684
    6          6             0       -0.093963   -1.379344   -0.075658
    7          1             0        2.045300   -1.368934   -0.139509
    8          1             0        2.212590    1.086788   -0.004774
    9          1             0        0.167295    2.455717    0.134734
   10          1             0       -2.045300    1.368934    0.139509
   11          1             0       -2.212590   -1.086788    0.004774
   12          1             0       -0.167295   -2.455717   -0.134734
 --------------------------------------------------------------------
     1 basis functions        1 primitive gaussians
     1 alpha electrons        1 beta electrons

 Harmonic frequencies (cm**-1), IR intensities (km*mol⁻¹),
 Raman scattering activities (A**4/amu), Raman depolarization ratios,
 reduced masses (AMU), force constants (mDyne/A) and normal coordinates:
                      1                      2                      3
                        a                      a                      a 
 Frequencies --   368.4259               368.4342               579.0752
 Red. masses --     8.8031                 8.8033                11.0900
 Frc consts  --     0.0000                 0.0000                 0.0000
 IR Inten    --     0.0024                 0.0003                 0.0000
 Raman Activ --     0.0000                 0.0000                 0.0000
 Depolar     --     0.0000                 0.0000                 0.0000
 Atom AN      X      Y      Z        X      Y      Z        X      Y      Z
   1   6    -0.01   0.01  -0.25     0.01  -0.02   0.42     0.03  -0.26  -0.02
   2   6     0.01  -0.03   0.48     0.00  -0.00   0.01    -0.47  -0.19   0.00
   3   6    -0.01   0.01  -0.24    -0.01   0.02  -0.42    -0.14   0.34   0.02
   4   6    -0.01   0.01  -0.25     0.01  -0.02   0.42    -0.03   0.26   0.02
   5   6     0.01  -0.03   0.48     0.00  -0.00   0.01     0.47   0.19  -0.00
   6   6    -0.01   0.01  -0.24    -0.01   0.02  -0.42     0.14  -0.34  -0.02
   7   1    -0.00   0.01  -0.16     0.01  -0.02   0.27     0.09   0.04  -0.00
   8   1     0.01  -0.02   0.31     0.00  -0.00   0.01    -0.12  -0.08  -0.00
   9   1    -0.00   0.01  -0.15    -0.01   0.02  -0.27     0.07   0.09   0.00
  10   1    -0.00   0.01  -0.16     0.01  -0.02   0.27    -0.09  -0.04   0.00
  11   1     0.01  -0.02   0.31     0.00  -0.00   0.01     0.12   0.08   0.00
  12   1    -0.00   0.01  -0.15    -0.01   0.02  -0.27    -0.07  -0.09  -0.00
                      4                      5                      6
                        a                      a                      a 
 Frequencies --   579.1146               657.5158               692.7846
 Red. masses --    11.0900                10.6034                 1.8598
 Frc consts  --     0.0000                 0.0000                 0.0000
 IR Inten    --     0.0000                 0.0000                32.5619
 Raman Activ --     0.0000                 0.0000                 0.0000
 Depolar     --     0.0000                 0.0000                 0.0000
 Atom AN      X      Y      Z        X      Y      Z        X      Y      Z
   1   6    -0.44   0.21   0.03     0.01  -0.02   0.38     0.00  -0.01   0.11
   2   6    -0.01   0.22   0.01    -0.01   0.02  -0.38     0.00  -0.01   0.11
   3   6     0.16   0.38   0.02     0.01  -0.02   0.38     0.00  -0.01   0.11
   4   6     0.44  -0.21  -0.03    -0.01   0.02  -0.38     0.00  -0.01   0.11
   5   6     0.01  -0.22  -0.01     0.01  -0.02   0.38     0.00  -0.01   0.11
   6   6    -0.16  -0.38  -0.02    -0.01   0.02  -0.38     0.00  -0.01   0.11
   7   1    -0.09   0.10   0.01     0.00  -0.01   0.15    -0.01   0.02  -0.39
   8   1     0.06  -0.07  -0.01    -0.00   0.01  -0.15    -0.01   0.02  -0.39
   9   1    -0.05   0.11   0.01     0.00  -0.01   0.15    -0.01   0.02  -0.39
  10   1     0.09  -0.10  -0.01    -0.00   0.01  -0.15    -0.01   0.02  -0.39
  11   1    -0.06   0.07   0.01     0.00  -0.01   0.15    -0.01   0.02  -0.39
  12   1     0.05  -0.11  -0.01    -0.00   0.01  -0.15    -0.01   0.02  -0.39
                      7                      8                      9
                        a                      a                      a 
 Frequencies --   882.1495               882.1558               930.4824
 Red. masses --     3.3197                 3.3197                 4.2156
 Frc consts  --     0.0000                 0.0000                 0.0000
 IR Inten    --     0.0000                 0.0000                 0.0207
 Raman Activ --     0.0000                 0.0000                 0.0000
 Depolar     --     0.0000                 0.0000                 0.0000
 Atom AN      X      Y      Z        X      Y      Z        X      Y      Z
   1   6    -0.01   0.01  -0.20     0.01  -0.01   0.17    -0.00   0.01  -0.14
   2   6     0.00  -0.00   0.04     0.01  -0.01   0.26     0.01  -0.02   0.31
   3   6     0.01  -0.01   0.25     0.00  -0.01   0.09    -0.01   0.01  -0.17
   4   6     0.01  -0.01   0.20    -0.01   0.01  -0.17    -0.00   0.01  -0.14
   5   6    -0.00   0.00  -0.04    -0.01   0.01  -0.26     0.01  -0.02   0.31
   6   6    -0.01   0.01  -0.25    -0.00   0.01  -0.09    -0.01   0.01  -0.17
   7   1     0.01  -0.02   0.39    -0.01   0.02  -0.33     0.01  -0.01   0.22
   8   1    -0.00   0.00  -0.09    -0.02   0.03  -0.50    -0.01   0.03  -0.48
   9   1    -0.01   0.03  -0.48    -0.01   0.01  -0.18     0.01  -0.01   0.26
  10   1    -0.01   0.02  -0.39     0.01  -0.02   0.33     0.01  -0.01   0.22
  11   1     0.00  -0.00   0.09     0.02  -0.03   0.50    -0.01   0.03  -0.48
  12   1     0.01  -0.03   0.48     0.01  -0.01   0.18     0.01  -0.01   0.26
                     10                     11                     12
                        a                      a                      a 
 Frequencies --   930.4848               936.9799               956.9453
 Red. masses --     4.2154                 2.4152                11.2925
 Frc consts  --     0.0000                 0.0000                 0.0000
 IR Inten    --     0.0045                 0.0000                 0.0007
 Raman Activ --     0.0000                 0.0000                 0.0000
 Depolar     --     0.0000                 0.0000                 0.0000
 Atom AN      X      Y      Z        X      Y      Z        X      Y      Z
   1   6     0.01  -0.02   0.28     0.00  -0.01   0.15    -0.33   0.22   0.02
   2   6    -0.00   0.00  -0.01    -0.00   0.01  -0.15     0.35   0.17  -0.00
   3   6    -0.01   0.02  -0.26     0.00  -0.01   0.15    -0.03  -0.39  -0.02
   4   6     0.01  -0.02   0.28    -0.00   0.01  -0.15    -0.33   0.22   0.02
   5   6    -0.00   0.00  -0.01     0.00  -0.01   0.15     0.35   0.17  -0.00
   6   6    -0.01   0.02  -0.26    -0.00   0.01  -0.15    -0.03  -0.39  -0.02
   7   1    -0.01   0.02  -0.43    -0.01   0.02  -0.38    -0.09   0.06   0.01
   8   1     0.00  -0.00   0.02     0.01  -0.02   0.38     0.09   0.05  -0.00
   9   1     0.01  -0.02   0.41    -0.01   0.02  -0.38    -0.01  -0.10  -0.01
  10   1    -0.01   0.02  -0.43     0.01  -0.02   0.38    -0.09   0.06   0.01
  11   1     0.00  -0.00   0.02    -0.01   0.02  -0.38     0.09   0.05  -0.00
  12   1     0.01  -0.02   0.41     0.01  -0.02   0.38    -0.01  -0.10  -0.01
                     13                     14                     15
                        a                      a                      a 
 Frequencies --  1066.9374              1090.4379              1090.4817
 Red. masses --    11.0783                 4.7115                 4.7080
 Frc consts  --     0.0000                 0.0000                 0.0000
 IR Inten    --     0.0000                 0.1450                 0.1208
 Raman Activ --     0.0000                 0.0000                 0.0000
 Depolar     --     0.0000                 0.0000                 0.0000
 Atom AN      X      Y      Z        X      Y      Z        X      Y      Z
   1   6    -0.32   0.22   0.02     0.23  -0.17  -0.02    -0.12  -0.13  -0.00
   2   6    -0.35  -0.17   0.00     0.08   0.20   0.01     0.25   0.01  -0.01
   3   6    -0.03  -0.39  -0.02    -0.17  -0.11  -0.00    -0.06   0.26   0.02
   4   6     0.32  -0.22  -0.02     0.23  -0.17  -0.02    -0.12  -0.13  -0.00
   5   6     0.35   0.17  -0.00     0.08   0.20   0.01     0.25   0.01  -0.01
   6   6     0.03   0.39   0.02    -0.17  -0.11  -0.00    -0.06   0.26   0.02
   7   1    -0.10   0.07   0.01     0.05  -0.08  -0.01    -0.26  -0.38  -0.01
   8   1    -0.11  -0.05   0.00    -0.12   0.36   0.02     0.18  -0.21  -0.02
   9   1    -0.01  -0.12  -0.01    -0.42  -0.01   0.01    -0.19   0.09   0.01
  10   1     0.10  -0.07  -0.01     0.05  -0.08  -0.01    -0.26  -0.38  -0.01
  11   1     0.11   0.05  -0.00    -0.12   0.36   0.02     0.18  -0.21  -0.02
  12   1     0.01   0.12   0.01    -0.42  -0.01   0.01    -0.19   0.09   0.01
                     16                     17                     18
                        a                      a                      a 
 Frequencies --  1176.0804              1198.2925              1198.3306
 Red. masses --     1.0124                 1.7288                 1.7285
 Frc consts  --     0.0000                 0.0000                 0.0000
 IR Inten    --     0.0033                 0.0000                 0.0000
 Raman Activ --     0.0000                 0.0000                 0.0000
 Depolar     --     0.0000                 0.0000                 0.0000
 Atom AN      X      Y      Z        X      Y      Z        X      Y      Z
   1   6     0.00   0.01   0.00     0.03  -0.01  -0.00     0.08   0.12   0.00
   2   6     0.00  -0.01  -0.00     0.04  -0.12  -0.01     0.06  -0.04  -0.00
   3   6    -0.01   0.00   0.00    -0.12  -0.01   0.00     0.08  -0.03  -0.00
   4   6     0.00   0.01   0.00    -0.03   0.01   0.00    -0.08  -0.12  -0.00
   5   6     0.00  -0.01  -0.00    -0.04   0.12   0.01    -0.06   0.04   0.00
   6   6    -0.01   0.00   0.00     0.12   0.01  -0.00    -0.08   0.03   0.00
   7   1    -0.23  -0.34  -0.01     0.03   0.02   0.00     0.31   0.46   0.02
   8   1    -0.18   0.37   0.03     0.22  -0.45  -0.03     0.12  -0.22  -0.02
   9   1     0.41  -0.03  -0.01    -0.46   0.03   0.02     0.31  -0.03  -0.01
  10   1    -0.23  -0.34  -0.01    -0.03  -0.02  -0.00    -0.31  -0.46  -0.02
  11   1    -0.18   0.37   0.03    -0.22   0.45   0.03    -0.12   0.22   0.02
  12   1     0.41  -0.03  -0.01     0.46  -0.03  -0.02    -0.31   0.03   0.01
                     19                     20                     21
                        a                      a                      a 
 Frequencies --  1304.1768              1319.5639              1460.3346
 Red. masses --     3.3197                12.0063                 8.2883
 Frc consts  --     0.0000                 0.0000                 0.0000
 IR Inten    --     0.0000                 0.0012                 0.0203
 Raman Activ --     0.0000                 0.0000                 0.0000
 Depolar     --     0.0000                 0.0000                 0.0000
 Atom AN      X      Y      Z        X      Y      Z        X      Y      Z
   1   6     0.10   0.16   0.01     0.23   0.34   0.01     0.27   0.27   0.01
   2   6    -0.08   0.17   0.01     0.18  -0.37  -0.03    -0.29   0.17   0.02
   3   6    -0.19   0.01   0.01    -0.41   0.03   0.01     0.07  -0.27  -0.02
   4   6    -0.10  -0.16  -0.01     0.23   0.34   0.01     0.27   0.27   0.01
   5   6     0.08  -0.17  -0.01     0.18  -0.37  -0.03    -0.29   0.17   0.02
   6   6     0.19  -0.01  -0.01    -0.41   0.03   0.01     0.07  -0.27  -0.02
   7   1    -0.20  -0.30  -0.01     0.00   0.01   0.00    -0.16  -0.27  -0.01
   8   1     0.16  -0.32  -0.02     0.00  -0.01  -0.00     0.05  -0.24  -0.02
   9   1     0.36  -0.02  -0.01    -0.01   0.00   0.00    -0.08  -0.07  -0.00
  10   1     0.20   0.30   0.01     0.00   0.01   0.00    -0.16  -0.27  -0.01
  11   1    -0.16   0.32   0.02     0.00  -0.01  -0.00     0.05  -0.24  -0.02
  12   1    -0.36   0.02   0.01    -0.01   0.00   0.00    -0.08  -0.07  -0.00
                     22                     23                     24
                        a                      a                      a 
 Frequencies --  1460.6487              1599.9462              1599.9551
 Red. masses --     8.2847                11.4353                11.4359
 Frc consts  --     0.0000                 0.0000                 0.0000
 IR Inten    --     0.0049                 0.0000                 0.0000
 Raman Activ --     0.0000                 0.0000                 0.0000
 Depolar     --     0.0000                 0.0000                 0.0000
 Atom AN      X      Y      Z        X      Y      Z        X      Y      Z
   1   6    -0.15   0.23   0.02    -0.25  -0.00   0.01    -0.23  -0.45  -0.02
   2   6    -0.06  -0.32  -0.02     0.30  -0.26  -0.02    -0.03   0.40   0.02
   3   6     0.38   0.04  -0.01    -0.50   0.09   0.02    -0.14  -0.20  -0.01
   4   6    -0.15   0.23   0.02     0.25   0.00  -0.01     0.23   0.45   0.02
   5   6    -0.06  -0.32  -0.02    -0.30   0.26   0.02     0.03  -0.40  -0.02
   6   6     0.38   0.04  -0.01     0.50  -0.09  -0.02     0.14   0.20   0.01
   7   1    -0.12  -0.03   0.00    -0.03   0.06   0.00     0.08   0.09   0.00
   8   1    -0.15   0.18   0.01    -0.00   0.09   0.01     0.07  -0.06  -0.01
   9   1    -0.31   0.04   0.01     0.12   0.01  -0.00     0.03  -0.06  -0.00
  10   1    -0.12  -0.03   0.00     0.03  -0.06  -0.00    -0.08  -0.09  -0.00
  11   1    -0.15   0.18   0.01     0.00  -0.09  -0.01    -0.07   0.06   0.01
  12   1    -0.31   0.04   0.01    -0.12  -0.01   0.00    -0.03   0.06   0.00
                     25                     26                     27
                        a                      a                      a 
 Frequencies --  3068.1648              3071.8073              3071.8566
 Red. masses --     1.7262                 1.7831                 1.7831
 Frc consts  --     0.0000                 0.0000                 0.0000
 IR Inten    --     0.0020                 0.0000                 0.0000
 Raman Activ --     0.0000                 0.0000                 0.0000
 Depolar     --     0.0000                 0.0000                 0.0000
 Atom AN      X      Y      Z        X      Y      Z        X      Y      Z
   1   6     0.09  -0.06  -0.01    -0.13   0.09   0.01    -0.01   0.00   0.00
   2   6    -0.09  -0.05   0.00     0.08   0.04   0.00    -0.11  -0.05   0.00
   3   6     0.01   0.10   0.01     0.01   0.06   0.00     0.01   0.14   0.01
   4   6     0.09  -0.06  -0.01     0.13  -0.09  -0.01     0.01  -0.00  -0.00
   5   6    -0.09  -0.05   0.00    -0.08  -0.04  -0.00     0.11   0.05  -0.00
   6   6     0.01   0.10   0.01    -0.01  -0.06  -0.00    -0.01  -0.14  -0.01
   7   1    -0.33   0.22   0.02     0.46  -0.31  -0.03     0.04  -0.03  -0.00
   8   1     0.35   0.17  -0.00    -0.29  -0.14   0.00     0.41   0.20  -0.00
   9   1    -0.03  -0.39  -0.02    -0.02  -0.23  -0.01    -0.03  -0.50  -0.03
  10   1    -0.33   0.22   0.02    -0.46   0.31   0.03    -0.04   0.03   0.00
  11   1     0.35   0.17  -0.00     0.29   0.14  -0.00    -0.41  -0.20   0.00
  12   1    -0.03  -0.39  -0.02     0.02   0.23   0.01     0.03   0.50   0.03
                     28                     29                     30
                        a                      a                      a 
 Frequencies --  3083.9389              3083.9829              3092.3300
 Red. masses --     1.8823                 1.8822                 1.9404
 Frc consts  --     0.0000                 0.0000                 0.0000
 IR Inten    --   119.3292               118.9527                 0.0000
 Raman Activ --     0.0000                 0.0000                 0.0000
 Depolar     --     0.0000                 0.0000                 0.0000
 Atom AN      X      Y      Z        X      Y      Z        X      Y      Z
   1   6     0.12  -0.08  -0.01    -0.06   0.04   0.00     0.10  -0.07  -0.01
   2   6     0.01   0.01   0.00    -0.15  -0.07   0.00     0.11   0.05  -0.00
   3   6    -0.01  -0.13  -0.01    -0.00  -0.09  -0.01     0.01   0.12   0.01
   4   6     0.12  -0.08  -0.01    -0.06   0.04   0.00    -0.10   0.07   0.01
   5   6     0.01   0.01   0.00    -0.15  -0.07   0.00    -0.11  -0.05   0.00
   6   6    -0.01  -0.13  -0.01    -0.00  -0.09  -0.01    -0.01  -0.12  -0.01
   7   1    -0.42   0.28   0.03     0.19  -0.13  -0.01    -0.32   0.22   0.02
   8   1    -0.04  -0.02   0.00     0.50   0.24  -0.00    -0.35  -0.17   0.00
   9   1     0.03   0.45   0.02     0.02   0.32   0.02    -0.03  -0.39  -0.02
  10   1    -0.42   0.28   0.03     0.19  -0.13  -0.01     0.32  -0.22  -0.02
  11   1    -0.04  -0.02   0.00     0.50   0.24  -0.00     0.35   0.17  -0.00
  12   1     0.03   0.45   0.02     0.02   0.32   0.02     0.03   0.39   0.02
