 Entering Gaussian System
 *********************************************
 Gaussian 98:
 frequency output generated by the xtb code
 *********************************************
                         Standard orientation:
 --------------------------------------------------------------------
  Center     Atomic     Atomic              Coordinates (Angstroms)
  Number     Number      Type              X           Y           Z
 --------------------------------------------------------------------
    1          6             0        0.237141    2.952527    0.238055
    2          6             0        1.617154    2.432082    0.114583
    3          6             0        2.166917    1.167472    0.089573
    4          6             0        3.571027    1.412605   -0.040587
    5          7             0        3.805033    2.698632   -0.088177
    6          8             0        2.605940    3.328621    0.012044
    7          6             0        4.637210    0.418387   -0.124128
    8          6             0        5.732349    0.500179    0.731090
    9          6             0        6.736646   -0.447984    0.683774
   10          6             0        6.662427   -1.490974   -0.224277
   11          6             0        5.589916   -1.579735   -1.095162
   12          6             0        4.588489   -0.627525   -1.041569
   13         17             0        3.276082   -0.733366   -2.178391
   14          6             0        1.543520   -0.150377    0.271639
   15          8             0        2.133817   -1.106499    0.759902
   16          7             0        0.254026   -0.220385   -0.133004
   17          6             0       -0.528465   -1.401205    0.021404
   18          6             0       -1.846149   -1.273733    0.833370
   19          7             0       -2.560313   -1.733067   -0.334185
   20          6             0       -1.469469   -1.742782   -1.148661
   21          8             0       -1.344211   -1.941008   -2.331288
   22          6             0       -3.895351   -1.238885   -0.511757
   23          6             0       -3.837435    0.273320   -0.135532
   24         16             0       -2.491270    0.394062    1.162808
   25          6             0       -3.415431    1.092357   -1.347509
   26          6             0       -5.131566    0.795998    0.464300
   27          6             0       -4.849343   -2.021845    0.385799
   28          8             0       -4.526021   -2.527716    1.434400
   29          8             0       -6.057117   -2.080385   -0.124833
   30          1             0       -0.249684    2.956102   -0.736775
   31          1             0       -0.347379    2.348046    0.927887
   32          1             0        0.282447    3.978213    0.593857
   33          1             0        5.774418    1.316347    1.434164
   34          1             0        7.575770   -0.372959    1.356280
   35          1             0        7.439751   -2.236977   -0.263316
   36          1             0        5.526427   -2.379315   -1.815647
   37          1             0       -0.195125    0.598408   -0.515547
   38          1             0        0.133754   -2.207581    0.346121
   39          1             0       -1.955486   -1.890901    1.724402
   40          1             0       -4.206984   -1.356949   -1.552079
   41          1             0       -2.547170    0.651819   -1.835336
   42          1             0       -4.229824    1.133705   -2.066941
   43          1             0       -3.170788    2.104838   -1.038449
   44          1             0       -5.040233    1.862318    0.650657
   45          1             0       -5.956880    0.624531   -0.222697
   46          1             0       -5.345434    0.302845    1.409969
   47          1             0       -6.693049   -2.581070    0.426271
 --------------------------------------------------------------------
     1 basis functions        1 primitive gaussians
     1 alpha electrons        1 beta electrons

 Harmonic frequencies (cm**-1), IR intensities (km*mol⁻¹),
 Raman scattering activities (A**4/amu), Raman depolarization ratios,
 reduced masses (AMU), force constants (mDyne/A) and normal coordinates:
                      1                      2                      3
                        a                      a                      a 
 Frequencies --     1.6865                19.2971                21.9104
 Red. masses --    13.5621                16.5570                19.6732
 Frc consts  --     0.0000                 0.0000                 0.0000
 IR Inten    --     0.3598                 1.5581                 1.8431
 Raman Activ --     0.0000                 0.0000                 0.0000
 Depolar     --     0.0000                 0.0000                 0.0000
 Atom AN      X      Y      Z        X      Y      Z        X      Y      Z
   1   6    -0.01  -0.01  -0.22     0.13   0.12   0.09     0.06   0.06   0.01
   2   6    -0.00  -0.01  -0.14     0.11   0.09   0.05     0.06   0.03   0.03
   3   6    -0.00  -0.01  -0.10     0.07   0.07   0.04     0.03   0.02  -0.00
   4   6     0.01  -0.01  -0.01     0.07   0.02  -0.01     0.04  -0.01   0.05
   5   7     0.01  -0.01   0.00     0.12   0.01  -0.04     0.08  -0.01   0.12
   6   8     0.00  -0.01  -0.09     0.16   0.06  -0.00     0.09   0.01   0.11
   7   6     0.01  -0.01   0.07     0.03  -0.03  -0.03     0.01  -0.04   0.04
   8   6    -0.05  -0.00   0.14     0.09  -0.01  -0.11    -0.06  -0.18   0.14
   9   6    -0.04  -0.01   0.22     0.05  -0.06  -0.12    -0.10  -0.23   0.12
  10   6     0.01  -0.01   0.22    -0.05  -0.11  -0.05    -0.08  -0.14   0.01
  11   6     0.07  -0.02   0.15    -0.12  -0.12   0.03    -0.02   0.00  -0.08
  12   6     0.07  -0.02   0.07    -0.07  -0.08   0.04     0.03   0.05  -0.06
  13  17     0.26  -0.03  -0.02    -0.26  -0.18   0.22     0.17   0.39  -0.27
  14   6    -0.02  -0.00  -0.13     0.02   0.10   0.08     0.02   0.02  -0.06
  15   8    -0.06  -0.00  -0.09    -0.05   0.13   0.21     0.04  -0.03  -0.17
  16   7     0.01  -0.00  -0.22     0.05   0.12  -0.00    -0.01   0.06   0.01
  17   6    -0.01   0.01  -0.21     0.02   0.12  -0.03    -0.02   0.06   0.04
  18   6     0.04  -0.01  -0.11     0.01   0.10  -0.04    -0.02   0.09   0.03
  19   7    -0.04   0.05  -0.08     0.04   0.07  -0.04    -0.00  -0.02   0.07
  20   6    -0.10   0.08  -0.16     0.04   0.12  -0.04    -0.01  -0.02   0.06
  21   8    -0.22   0.17  -0.21     0.06   0.18  -0.05    -0.00  -0.09   0.08
  22   6    -0.06   0.03   0.05     0.00  -0.04  -0.03    -0.03  -0.08   0.04
  23   6    -0.06   0.01   0.13    -0.12  -0.04  -0.01    -0.08  -0.05  -0.09
  24  16     0.12  -0.04  -0.00    -0.08   0.14  -0.15    -0.11   0.18  -0.19
  25   6    -0.21   0.09   0.13    -0.27   0.02  -0.03    -0.13  -0.14  -0.16
  26   6    -0.01  -0.05   0.29    -0.14  -0.17   0.07    -0.09  -0.05  -0.12
  27   6     0.02  -0.03   0.07     0.07  -0.13  -0.04     0.02  -0.04   0.13
  28   8     0.11  -0.09   0.04     0.14  -0.14  -0.05     0.06   0.12   0.22
  29   8    -0.01  -0.05   0.17     0.09  -0.27  -0.04     0.04  -0.22   0.15
  30   1     0.01  -0.01  -0.07     0.04   0.06   0.03     0.02   0.01   0.00
  31   1    -0.01  -0.00  -0.07     0.03   0.02   0.01     0.01   0.03   0.01
  32   1    -0.01  -0.00  -0.07     0.05   0.03   0.05     0.02   0.02  -0.01
  33   1    -0.03   0.00   0.04     0.05   0.01  -0.05    -0.02  -0.07   0.07
  34   1    -0.03  -0.00   0.08     0.03  -0.01  -0.05    -0.04  -0.10   0.06
  35   1     0.00  -0.00   0.08    -0.02  -0.04  -0.01    -0.03  -0.05   0.00
  36   1     0.03  -0.01   0.04    -0.06  -0.05   0.03    -0.00   0.02  -0.05
  37   1     0.01  -0.00  -0.07     0.03   0.03  -0.03    -0.01   0.02   0.02
  38   1    -0.00  -0.01  -0.08     0.00   0.03  -0.00    -0.01   0.02   0.02
  39   1     0.03  -0.01  -0.04     0.01   0.03  -0.01    -0.00   0.05   0.02
  40   1    -0.04   0.03   0.02     0.00  -0.02  -0.01    -0.01  -0.05   0.02
  41   1    -0.07   0.04   0.00    -0.08   0.03  -0.02    -0.03  -0.04  -0.04
  42   1    -0.08   0.04   0.07    -0.09  -0.01   0.01    -0.04  -0.07  -0.05
  43   1    -0.05   0.02   0.05    -0.10   0.01  -0.01    -0.05  -0.03  -0.07
  44   1    -0.00  -0.02   0.10    -0.06  -0.05   0.03    -0.04  -0.01  -0.06
  45   1    -0.02  -0.01   0.11    -0.04  -0.07   0.03    -0.03  -0.04  -0.03
  46   1     0.03  -0.04   0.08    -0.01  -0.06   0.02    -0.02   0.00  -0.02
  47   1     0.01  -0.02   0.05     0.04  -0.09  -0.01     0.02  -0.05   0.05
                      4                      5                      6
                        a                      a                      a 
 Frequencies --    32.2395                37.7336                54.7794
 Red. masses --    15.4836                16.7511                16.8927
 Frc consts  --     0.0000                 0.0000                 0.0000
 IR Inten    --     0.7394                 3.1090                 3.3516
 Raman Activ --     0.0000                 0.0000                 0.0000
 Depolar     --     0.0000                 0.0000                 0.0000
 Atom AN      X      Y      Z        X      Y      Z        X      Y      Z
   1   6     0.01   0.10  -0.13    -0.06   0.02   0.02     0.01   0.01   0.09
   2   6     0.01   0.08  -0.12    -0.05   0.04   0.04    -0.00   0.00   0.01
   3   6    -0.00   0.07  -0.03    -0.04   0.05   0.02    -0.01   0.00  -0.01
   4   6    -0.00   0.05  -0.09    -0.04   0.06   0.04    -0.01  -0.00  -0.06
   5   7     0.01   0.05  -0.21    -0.05   0.06   0.07    -0.01  -0.01  -0.09
   6   8     0.02   0.07  -0.25    -0.06   0.06   0.07    -0.00  -0.00  -0.04
   7   6    -0.05  -0.00  -0.02    -0.08   0.02   0.02    -0.01  -0.00  -0.04
   8   6    -0.11  -0.10   0.06    -0.06  -0.03   0.00    -0.02   0.04  -0.03
   9   6    -0.20  -0.20   0.14    -0.12  -0.09   0.01    -0.01   0.04   0.02
  10   6    -0.23  -0.19   0.14    -0.20  -0.10   0.03     0.00   0.00   0.06
  11   6    -0.17  -0.10   0.05    -0.22  -0.05   0.05     0.01  -0.03   0.05
  12   6    -0.08  -0.00  -0.02    -0.16   0.01   0.04     0.01  -0.03  -0.00
  13  17    -0.04   0.20  -0.17    -0.31   0.12   0.11     0.06  -0.14  -0.04
  14   6     0.02   0.08   0.04    -0.02   0.04   0.01    -0.01   0.00  -0.02
  15   8     0.08   0.10   0.01    -0.06   0.11   0.17     0.00  -0.04  -0.12
  16   7    -0.00   0.06   0.14     0.05  -0.05  -0.21    -0.04   0.05   0.07
  17   6     0.05   0.01   0.11     0.08  -0.06  -0.18    -0.02   0.02  -0.02
  18   6     0.03  -0.05   0.08     0.12  -0.08  -0.11    -0.03  -0.07  -0.01
  19   7     0.07  -0.00   0.04     0.06  -0.07  -0.09    -0.02  -0.00  -0.06
  20   6     0.10   0.02   0.07     0.02  -0.05  -0.14    -0.01   0.10  -0.05
  21   8     0.16   0.05   0.08    -0.04  -0.06  -0.16    -0.00   0.26  -0.08
  22   6     0.08   0.01  -0.00     0.06  -0.02  -0.01    -0.01   0.02  -0.03
  23   6     0.05  -0.01   0.09     0.15  -0.02  -0.05     0.02   0.01   0.02
  24  16    -0.00  -0.12   0.24     0.24  -0.13  -0.08    -0.12  -0.19   0.21
  25   6     0.10   0.06   0.15     0.20  -0.07  -0.07     0.14   0.04   0.09
  26   6     0.03  -0.06   0.06     0.18   0.08  -0.07    -0.02   0.01  -0.07
  27   6     0.03  -0.06  -0.11     0.10   0.05   0.10     0.02   0.04   0.02
  28   8    -0.02  -0.21  -0.18     0.18   0.16   0.15    -0.06   0.52   0.27
  29   8     0.05   0.03  -0.18     0.09   0.02   0.20     0.15  -0.47  -0.22
  30   1    -0.00   0.00  -0.03    -0.00   0.04  -0.00    -0.01   0.01   0.03
  31   1     0.01   0.05  -0.02    -0.03  -0.02  -0.02     0.01   0.00   0.03
  32   1     0.01   0.04  -0.07    -0.03  -0.01   0.04     0.01   0.00   0.03
  33   1    -0.02  -0.03   0.02     0.00  -0.01  -0.00    -0.01   0.02  -0.02
  34   1    -0.07  -0.08   0.06    -0.03  -0.04  -0.00    -0.01   0.02   0.01
  35   1    -0.09  -0.08   0.06    -0.07  -0.05   0.01     0.00  -0.00   0.03
  36   1    -0.05  -0.03   0.02    -0.08  -0.02   0.02     0.01  -0.02   0.02
  37   1    -0.01   0.01   0.05     0.02  -0.02  -0.07    -0.02   0.02   0.04
  38   1     0.02   0.01   0.03     0.03  -0.02  -0.06    -0.00   0.00  -0.02
  39   1     0.00  -0.03   0.01     0.05  -0.03  -0.03    -0.00  -0.04  -0.02
  40   1     0.04   0.02  -0.01    -0.01  -0.01   0.01    -0.01   0.01  -0.01
  41   1     0.04   0.03   0.05     0.05  -0.04  -0.02     0.05   0.01   0.04
  42   1     0.04   0.03   0.03     0.06  -0.01  -0.02     0.06   0.03   0.01
  43   1     0.02   0.01   0.06     0.08  -0.02  -0.03     0.04   0.01   0.05
  44   1     0.00  -0.02   0.04     0.07   0.02  -0.04    -0.01   0.00  -0.01
  45   1     0.02  -0.00   0.00     0.05   0.02  -0.02     0.01   0.01  -0.04
  46   1    -0.00  -0.03   0.01     0.05   0.04  -0.01    -0.03  -0.00  -0.03
  47   1     0.00  -0.00  -0.07     0.03   0.02   0.07     0.04  -0.11  -0.05
                      7                      8                      9
                        a                      a                      a 
 Frequencies --    63.6589                68.9542                83.3395
 Red. masses --    15.0371                14.6827                14.8913
 Frc consts  --     0.0000                 0.0000                 0.0000
 IR Inten    --     7.0748                 3.6258                 3.4806
 Raman Activ --     0.0000                 0.0000                 0.0000
 Depolar     --     0.0000                 0.0000                 0.0000
 Atom AN      X      Y      Z        X      Y      Z        X      Y      Z
   1   6     0.06   0.08   0.30    -0.05  -0.10   0.41    -0.07  -0.17   0.17
   2   6     0.03   0.06   0.10    -0.05  -0.03   0.14    -0.06  -0.12   0.03
   3   6     0.01   0.05  -0.02    -0.01  -0.01  -0.02    -0.00  -0.09   0.16
   4   6     0.00   0.03  -0.12    -0.03   0.05  -0.14    -0.03  -0.04  -0.04
   5   7     0.02   0.03  -0.09    -0.09   0.07  -0.11    -0.11  -0.05  -0.31
   6   8     0.04   0.05   0.06    -0.12   0.02   0.09    -0.14  -0.10  -0.28
   7   6    -0.00   0.03  -0.09    -0.02   0.07  -0.13    -0.00  -0.02   0.00
   8   6    -0.02   0.09  -0.07    -0.05   0.11  -0.09    -0.06  -0.06   0.08
   9   6    -0.04   0.06   0.06    -0.10   0.05   0.07    -0.04  -0.04   0.07
  10   6    -0.04  -0.03   0.17    -0.12  -0.05   0.20     0.04   0.04  -0.03
  11   6    -0.01  -0.09   0.13    -0.07  -0.08   0.14     0.09   0.07  -0.09
  12   6     0.01  -0.05  -0.00    -0.02  -0.02  -0.03     0.06   0.03  -0.06
  13  17     0.12  -0.21  -0.10     0.08  -0.10  -0.18     0.10   0.12  -0.11
  14   6    -0.01   0.05  -0.07     0.05  -0.04  -0.05     0.02  -0.09   0.25
  15   8     0.02  -0.01  -0.24     0.10  -0.04  -0.09    -0.02  -0.06   0.42
  16   7    -0.05   0.11   0.05     0.06  -0.07  -0.07     0.06  -0.10   0.15
  17   6    -0.02   0.08  -0.02     0.04  -0.05   0.01    -0.01  -0.05   0.04
  18   6    -0.02  -0.03  -0.01     0.04   0.07  -0.00    -0.05  -0.02  -0.02
  19   7    -0.01  -0.04  -0.02     0.03   0.06   0.02    -0.00   0.03  -0.07
  20   6    -0.01   0.10  -0.04     0.03  -0.10   0.03     0.02   0.10  -0.03
  21   8    -0.01   0.22  -0.06     0.03  -0.28   0.06     0.08   0.32  -0.07
  22   6    -0.02  -0.07   0.00     0.03   0.06  -0.00    -0.01   0.02  -0.04
  23   6    -0.01  -0.06  -0.07     0.01   0.06   0.03    -0.02   0.02  -0.06
  24  16    -0.19  -0.12   0.06     0.21   0.20  -0.17     0.02   0.04  -0.14
  25   6     0.13  -0.14  -0.08    -0.16   0.10   0.01    -0.07   0.02  -0.07
  26   6    -0.03   0.04  -0.21     0.05  -0.02   0.18    -0.01   0.02  -0.02
  27   6     0.02  -0.04   0.08     0.01   0.03  -0.05     0.05   0.03   0.03
  28   8     0.15  -0.25  -0.05    -0.04   0.08  -0.02     0.15   0.04   0.01
  29   8    -0.09   0.23   0.33     0.06  -0.04  -0.16     0.01   0.04   0.15
  30   1    -0.02   0.06   0.10    -0.05   0.03   0.14    -0.05  -0.04   0.06
  31   1     0.03   0.00   0.09     0.01  -0.07   0.10     0.00  -0.07   0.05
  32   1     0.03   0.01   0.12    -0.01  -0.05   0.18    -0.02  -0.05   0.06
  33   1    -0.01   0.04  -0.04    -0.01   0.05  -0.05    -0.03  -0.03   0.04
  34   1    -0.02   0.03   0.02    -0.04   0.02   0.03    -0.03  -0.02   0.04
  35   1    -0.02  -0.02   0.08    -0.05  -0.03   0.10     0.02   0.02  -0.01
  36   1    -0.00  -0.04   0.06    -0.02  -0.05   0.07     0.04   0.03  -0.04
  37   1    -0.03   0.04   0.05     0.01  -0.02  -0.01     0.04  -0.03   0.00
  38   1     0.00   0.02  -0.02     0.01  -0.01   0.02    -0.03  -0.03   0.01
  39   1     0.01  -0.02  -0.01    -0.00   0.03   0.01    -0.04  -0.00  -0.01
  40   1    -0.02  -0.03   0.01     0.02   0.02  -0.00    -0.02  -0.00  -0.01
  41   1     0.05  -0.05   0.00    -0.05   0.05  -0.02    -0.02   0.01  -0.03
  42   1     0.06  -0.04  -0.04    -0.07   0.02   0.02    -0.03   0.00  -0.01
  43   1     0.04  -0.04  -0.03    -0.05   0.03  -0.00    -0.02   0.01  -0.02
  44   1    -0.01   0.02  -0.09     0.01  -0.01   0.07    -0.00   0.01  -0.01
  45   1     0.00  -0.01  -0.07    -0.00   0.00   0.07    -0.01  -0.00   0.00
  46   1    -0.03   0.04  -0.05     0.04  -0.03   0.05     0.01   0.01  -0.00
  47   1    -0.01   0.06   0.10     0.01  -0.02  -0.05     0.01   0.01   0.05
                     10                     11                     12
                        a                      a                      a 
 Frequencies --    94.9177               101.5851               116.0710
 Red. masses --    14.1862                15.1245                17.4347
 Frc consts  --     0.0000                 0.0000                 0.0000
 IR Inten    --     7.8139                 7.7737                 9.1268
 Raman Activ --     0.0000                 0.0000                 0.0000
 Depolar     --     0.0000                 0.0000                 0.0000
 Atom AN      X      Y      Z        X      Y      Z        X      Y      Z
   1   6     0.13   0.22   0.21    -0.01   0.06   0.01     0.00   0.21   0.00
   2   6     0.08   0.13   0.04    -0.02   0.02   0.01    -0.04   0.10   0.03
   3   6    -0.03   0.09   0.01    -0.06   0.00   0.00    -0.11   0.07   0.04
   4   6    -0.01  -0.03  -0.05    -0.05  -0.04   0.01    -0.10  -0.02   0.03
   5   7     0.09  -0.05  -0.11    -0.02  -0.05   0.01    -0.02  -0.04   0.02
   6   8     0.17   0.06  -0.04     0.00  -0.01   0.01     0.03   0.04   0.01
   7   6    -0.03  -0.06  -0.02    -0.06  -0.06   0.02    -0.15  -0.08   0.04
   8   6    -0.10  -0.08   0.08    -0.10  -0.07   0.07    -0.24  -0.12   0.16
   9   6    -0.05  -0.02   0.07    -0.05  -0.01   0.04    -0.15  -0.03   0.12
  10   6     0.10   0.07  -0.05     0.05   0.06  -0.05     0.05   0.15  -0.10
  11   6     0.15   0.07  -0.11     0.07   0.06  -0.08     0.10   0.14  -0.15
  12   6     0.07  -0.01  -0.08     0.00  -0.02  -0.03    -0.04  -0.01  -0.04
  13  17     0.16  -0.08  -0.16    -0.00  -0.15  -0.04    -0.16  -0.35   0.05
  14   6    -0.10   0.13   0.07    -0.07   0.02   0.00    -0.04   0.04  -0.01
  15   8    -0.22   0.23   0.36    -0.09   0.01  -0.00     0.09  -0.00  -0.27
  16   7    -0.03   0.05  -0.20    -0.07   0.03  -0.00    -0.09   0.03   0.16
  17   6     0.00   0.03  -0.11    -0.04   0.01   0.01     0.02  -0.05   0.08
  18   6     0.05  -0.02  -0.01    -0.08   0.05  -0.08     0.01  -0.07   0.03
  19   7    -0.02  -0.08   0.06    -0.02   0.19  -0.18     0.04  -0.07   0.02
  20   6    -0.07  -0.07  -0.02     0.06  -0.08  -0.05     0.06   0.02   0.03
  21   8    -0.18  -0.20  -0.01     0.22  -0.44   0.02     0.11   0.19   0.01
  22   6    -0.01  -0.05   0.05    -0.03   0.15  -0.10     0.05  -0.03  -0.00
  23   6     0.02  -0.05   0.04    -0.04   0.12   0.01     0.07  -0.02  -0.02
  24  16     0.00  -0.10   0.08    -0.18   0.01   0.15     0.28   0.04  -0.22
  25   6     0.06  -0.08   0.03     0.05   0.23   0.11    -0.07  -0.03  -0.07
  26   6     0.02  -0.01   0.01    -0.09   0.07  -0.04     0.13  -0.03   0.12
  27   6    -0.09  -0.02  -0.01     0.15   0.02  -0.02     0.03   0.01  -0.00
  28   8    -0.22  -0.01   0.03     0.44   0.00  -0.11     0.00   0.02   0.01
  29   8    -0.06   0.01  -0.12     0.10  -0.12   0.19     0.04   0.03  -0.02
  30   1     0.04   0.18   0.06    -0.00   0.03   0.00    -0.01   0.02   0.01
  31   1     0.02   0.00  -0.01    -0.01   0.02  -0.00    -0.00   0.11   0.04
  32   1     0.06   0.02   0.17     0.01   0.01   0.01     0.03   0.08  -0.05
  33   1    -0.06  -0.04   0.04    -0.05  -0.03   0.04    -0.11  -0.06   0.08
  34   1    -0.03  -0.01   0.04    -0.03  -0.01   0.03    -0.07  -0.02   0.06
  35   1     0.05   0.04  -0.02     0.03   0.03  -0.03     0.05   0.08  -0.06
  36   1     0.07   0.04  -0.05     0.04   0.03  -0.04     0.06   0.07  -0.08
  37   1     0.01  -0.00  -0.10    -0.02   0.01   0.01    -0.07   0.02   0.12
  38   1     0.01   0.02  -0.03    -0.01   0.02   0.03     0.02  -0.01   0.01
  39   1     0.05  -0.01  -0.00    -0.05  -0.02  -0.05    -0.02  -0.01   0.02
  40   1     0.00  -0.01   0.01    -0.03   0.06  -0.02     0.02  -0.01  -0.00
  41   1     0.01  -0.04   0.01     0.02   0.07   0.04    -0.02   0.00  -0.04
  42   1     0.02  -0.02   0.01     0.03   0.09   0.02    -0.04  -0.03  -0.00
  43   1     0.03  -0.03   0.01     0.02   0.05   0.07    -0.03  -0.00  -0.04
  44   1     0.02  -0.00   0.00    -0.04   0.02  -0.00     0.05  -0.01   0.04
  45   1     0.01   0.00  -0.00    -0.01   0.02  -0.03     0.02   0.00   0.06
  46   1    -0.00  -0.00   0.00    -0.04   0.01  -0.02     0.06  -0.02   0.04
  47   1    -0.03   0.01  -0.04     0.07  -0.06   0.07     0.00   0.01  -0.01
                     13                     14                     15
                        a                      a                      a 
 Frequencies --   134.7677               138.4287               156.3176
 Red. masses --    16.8537                17.7700                14.7602
 Frc consts  --     0.0000                 0.0000                 0.0000
 IR Inten    --     6.3872                 8.6679                 4.9710
 Raman Activ --     0.0000                 0.0000                 0.0000
 Depolar     --     0.0000                 0.0000                 0.0000
 Atom AN      X      Y      Z        X      Y      Z        X      Y      Z
   1   6     0.10   0.11   0.14     0.03  -0.04   0.21    -0.07  -0.25   0.02
   2   6     0.06   0.04  -0.01     0.01  -0.04  -0.03     0.00  -0.05  -0.05
   3   6     0.03   0.02   0.10     0.04  -0.03   0.07     0.10   0.00  -0.15
   4   6     0.03  -0.01   0.01     0.03  -0.00  -0.01     0.08   0.11  -0.08
   5   7     0.06  -0.02  -0.21    -0.01  -0.01  -0.25    -0.01   0.14   0.04
   6   8     0.08   0.01  -0.24    -0.02  -0.03  -0.28    -0.08   0.04   0.07
   7   6     0.05   0.00   0.08     0.04   0.00   0.09     0.06   0.08  -0.07
   8   6     0.08   0.01   0.04     0.01  -0.06   0.13    -0.07  -0.09   0.10
   9   6     0.08   0.01  -0.02     0.01  -0.06   0.07    -0.14  -0.17   0.17
  10   6     0.03   0.00  -0.00     0.05   0.04  -0.04    -0.00   0.01  -0.04
  11   6    -0.01  -0.01   0.04     0.04   0.07  -0.05     0.09   0.14  -0.17
  12   6     0.01   0.01   0.08     0.02   0.04   0.06     0.06   0.10  -0.10
  13  17    -0.06   0.24   0.24    -0.18   0.15   0.35    -0.18  -0.22   0.17
  14   6     0.00   0.01   0.02     0.03  -0.04  -0.07     0.16  -0.01  -0.13
  15   8     0.05  -0.08  -0.20     0.02  -0.16  -0.27     0.16   0.05  -0.01
  16   7    -0.03   0.03   0.08     0.03   0.03  -0.11     0.18  -0.01  -0.17
  17   6     0.01  -0.02  -0.06    -0.01   0.06  -0.09     0.09   0.06  -0.03
  18   6    -0.03  -0.12  -0.11     0.05   0.10   0.01     0.09   0.09   0.00
  19   7     0.01  -0.07  -0.16    -0.04   0.06   0.09     0.09   0.02   0.03
  20   6     0.05  -0.07  -0.10    -0.11   0.02  -0.00     0.07   0.03   0.00
  21   8     0.16  -0.25  -0.08    -0.29  -0.09  -0.00     0.07   0.05   0.00
  22   6    -0.01  -0.07  -0.09    -0.03   0.05   0.09     0.07  -0.05   0.00
  23   6    -0.06  -0.09  -0.01     0.04   0.07   0.02    -0.05  -0.05   0.01
  24  16    -0.08  -0.24  -0.05     0.05   0.16   0.05    -0.22  -0.01   0.14
  25   6    -0.18   0.03   0.04     0.15  -0.04  -0.02    -0.06   0.01   0.05
  26   6    -0.05  -0.18   0.11     0.04   0.16  -0.07    -0.15  -0.16  -0.08
  27   6    -0.05   0.09   0.01    -0.00  -0.08  -0.00     0.01   0.04   0.01
  28   8    -0.12   0.27   0.10     0.03  -0.23  -0.07    -0.09   0.10   0.07
  29   8    -0.10   0.26   0.08     0.04  -0.22  -0.08     0.01   0.19  -0.01
  30   1    -0.01   0.03   0.06    -0.04   0.01   0.08    -0.00  -0.01  -0.00
  31   1     0.05   0.05   0.07     0.04  -0.02   0.08    -0.01  -0.15  -0.05
  32   1     0.06   0.04   0.03     0.03  -0.02   0.07    -0.07  -0.10   0.09
  33   1     0.03   0.00   0.01    -0.00  -0.03   0.06    -0.04  -0.05   0.06
  34   1     0.03   0.00  -0.02    -0.00  -0.04   0.03    -0.08  -0.10   0.10
  35   1     0.01   0.00  -0.01     0.02   0.02  -0.03    -0.00   0.00  -0.02
  36   1    -0.01  -0.00   0.01     0.02   0.03  -0.03     0.04   0.06  -0.07
  37   1    -0.03   0.03   0.09     0.00   0.03   0.03     0.08  -0.02  -0.13
  38   1     0.01  -0.00  -0.02    -0.01   0.01  -0.04     0.01   0.01   0.00
  39   1    -0.01  -0.05  -0.04     0.03   0.04   0.01     0.05   0.02   0.00
  40   1    -0.02  -0.02  -0.02    -0.00   0.02   0.02     0.03  -0.02  -0.00
  41   1    -0.05   0.03  -0.01     0.05  -0.03   0.02    -0.00   0.02   0.02
  42   1    -0.06   0.01   0.03     0.06  -0.02  -0.02    -0.01  -0.00   0.01
  43   1    -0.06   0.01   0.03     0.05  -0.01  -0.02    -0.04   0.00   0.03
  44   1    -0.02  -0.05   0.04     0.02   0.05  -0.03    -0.08  -0.04  -0.04
  45   1    -0.03  -0.05   0.05     0.02   0.05  -0.03    -0.03  -0.09  -0.03
  46   1     0.01  -0.06   0.03    -0.01   0.05  -0.02    -0.04  -0.04  -0.02
  47   1    -0.04   0.12   0.05     0.02  -0.10  -0.05    -0.02   0.08   0.00
                     16                     17                     18
                        a                      a                      a 
 Frequencies --   184.2564               205.5272               207.0834
 Red. masses --     3.5491                13.4838                11.9407
 Frc consts  --     0.0000                 0.0000                 0.0000
 IR Inten    --     2.0075                 5.2280                 5.4460
 Raman Activ --     0.0000                 0.0000                 0.0000
 Depolar     --     0.0000                 0.0000                 0.0000
 Atom AN      X      Y      Z        X      Y      Z        X      Y      Z
   1   6    -0.02  -0.08   0.04     0.06   0.24  -0.13    -0.06   0.03   0.01
   2   6     0.02   0.02   0.07     0.02   0.06   0.13    -0.07  -0.01   0.03
   3   6     0.05   0.03   0.09     0.00   0.04   0.22    -0.07  -0.01   0.16
   4   6     0.03   0.05   0.01    -0.01   0.03   0.07    -0.08  -0.07   0.12
   5   7     0.01   0.06  -0.00     0.02   0.02  -0.04    -0.07  -0.08  -0.03
   6   8    -0.00   0.05   0.05     0.04   0.04   0.02    -0.06  -0.05  -0.09
   7   6     0.02   0.04  -0.04    -0.05   0.01  -0.01    -0.12  -0.11   0.14
   8   6     0.01  -0.01  -0.02    -0.05   0.04  -0.01    -0.06  -0.05   0.05
   9   6    -0.03  -0.05   0.02    -0.04   0.05   0.00     0.06   0.09  -0.11
  10   6    -0.02  -0.03   0.00    -0.04   0.04   0.02     0.03   0.05  -0.07
  11   6     0.01   0.03  -0.04    -0.04   0.03   0.01    -0.09  -0.07   0.09
  12   6     0.02   0.03  -0.05    -0.05   0.02  -0.02    -0.11  -0.10   0.12
  13  17     0.02  -0.12  -0.05    -0.03  -0.10  -0.11     0.08  -0.01  -0.15
  14   6     0.02   0.04   0.08     0.21  -0.10   0.17    -0.05  -0.01   0.00
  15   8    -0.01   0.04   0.11     0.53  -0.02   0.04    -0.16  -0.12  -0.09
  16   7     0.05   0.07  -0.02     0.25  -0.26   0.08     0.02   0.06  -0.19
  17   6     0.02   0.07  -0.10     0.03  -0.13  -0.06     0.08   0.06  -0.05
  18   6     0.05   0.03  -0.05     0.02   0.00  -0.04     0.15   0.10   0.06
  19   7     0.01   0.01  -0.02    -0.04   0.04  -0.01     0.12  -0.05   0.15
  20   6    -0.03   0.02  -0.07    -0.10  -0.02  -0.07     0.03  -0.00   0.05
  21   8    -0.11  -0.14  -0.07    -0.31  -0.09  -0.09    -0.14   0.07   0.02
  22   6    -0.00  -0.01   0.01    -0.05   0.03   0.00     0.17  -0.02   0.01
  23   6    -0.01  -0.01   0.01    -0.06   0.03  -0.00     0.05  -0.03  -0.00
  24  16    -0.02  -0.00   0.02    -0.08  -0.01   0.01     0.04   0.14   0.04
  25   6     0.01  -0.02   0.01    -0.00   0.06   0.04     0.05   0.12   0.10
  26   6    -0.02  -0.02  -0.01    -0.11  -0.00  -0.10    -0.15  -0.34  -0.16
  27   6    -0.01  -0.01   0.01    -0.03   0.00  -0.00     0.11   0.06  -0.01
  28   8    -0.05  -0.01   0.02    -0.00  -0.01  -0.02     0.07   0.07   0.01
  29   8    -0.00   0.02  -0.01    -0.05  -0.03   0.02     0.14   0.19  -0.05
  30   1    -0.19  -0.52   0.10     0.10   0.12  -0.08    -0.02   0.00   0.00
  31   1     0.16   0.25   0.39    -0.06   0.08  -0.10    -0.02   0.02   0.01
  32   1    -0.01   0.14  -0.48     0.04   0.06  -0.01    -0.01   0.01  -0.01
  33   1     0.00  -0.01  -0.00    -0.02   0.01  -0.01    -0.02  -0.01   0.02
  34   1    -0.02  -0.03   0.02    -0.01   0.02  -0.00     0.05   0.06  -0.08
  35   1    -0.01  -0.02   0.01    -0.01   0.01   0.01     0.03   0.04  -0.05
  36   1     0.00   0.01  -0.01    -0.01   0.00   0.01    -0.03  -0.02   0.03
  37   1    -0.01   0.05   0.09     0.06  -0.03   0.11    -0.01   0.03  -0.01
  38   1     0.00   0.01  -0.04    -0.04  -0.08  -0.03     0.04   0.03  -0.01
  39   1     0.03   0.00  -0.02     0.00   0.00  -0.01     0.07   0.05   0.03
  40   1    -0.00  -0.00   0.00    -0.01   0.01  -0.00     0.08  -0.02  -0.00
  41   1     0.02   0.00   0.02     0.01   0.03   0.03     0.07   0.10   0.07
  42   1     0.01  -0.02  -0.01     0.01   0.02  -0.01     0.05  -0.01  -0.01
  43   1    -0.02  -0.00   0.00    -0.02   0.02   0.02    -0.07   0.05   0.06
  44   1    -0.01  -0.00  -0.00    -0.06   0.01  -0.05    -0.17  -0.08  -0.11
  45   1    -0.00  -0.01  -0.01    -0.02  -0.03  -0.04    -0.01  -0.23  -0.06
  46   1    -0.01  -0.00  -0.00    -0.04   0.02  -0.02    -0.01  -0.07  -0.02
  47   1    -0.01   0.01  -0.01    -0.00  -0.02   0.01     0.02   0.06  -0.02
                     19                     20                     21
                        a                      a                      a 
 Frequencies --   219.5937               234.5931               241.0088
 Red. masses --    13.5346                12.5844                 2.1674
 Frc consts  --     0.0000                 0.0000                 0.0000
 IR Inten    --    10.2398                 4.9174                 0.1016
 Raman Activ --     0.0000                 0.0000                 0.0000
 Depolar     --     0.0000                 0.0000                 0.0000
 Atom AN      X      Y      Z        X      Y      Z        X      Y      Z
   1   6     0.11   0.06   0.13     0.00  -0.00   0.15    -0.02  -0.01   0.02
   2   6     0.06   0.00  -0.14    -0.01   0.02  -0.13    -0.01   0.01  -0.03
   3   6    -0.03  -0.03  -0.34    -0.05   0.02  -0.16    -0.01   0.01  -0.02
   4   6    -0.00  -0.07  -0.16    -0.05  -0.05   0.02     0.00   0.01   0.01
   5   7     0.09  -0.09   0.06     0.03  -0.07   0.07    -0.01   0.02   0.02
   6   8     0.13  -0.04   0.06     0.04  -0.02  -0.07    -0.02   0.02  -0.01
   7   6     0.02  -0.03  -0.05    -0.15  -0.15   0.17     0.00   0.00   0.02
   8   6    -0.04   0.05  -0.00    -0.14  -0.09   0.14     0.02  -0.02   0.01
   9   6    -0.03   0.06   0.06     0.05   0.13  -0.10     0.02  -0.03  -0.02
  10   6     0.02   0.05   0.06     0.06   0.13  -0.11     0.01  -0.02  -0.02
  11   6     0.06  -0.01   0.00    -0.11  -0.09   0.13    -0.01  -0.01   0.00
  12   6     0.04  -0.04  -0.03    -0.16  -0.15   0.17     0.00   0.00   0.02
  13  17    -0.12   0.21   0.15     0.02   0.07  -0.10     0.04  -0.02   0.01
  14   6    -0.02  -0.03  -0.14     0.09  -0.02  -0.12     0.00   0.01  -0.01
  15   8     0.07   0.16   0.09     0.23   0.14   0.02     0.03   0.04   0.01
  16   7    -0.05  -0.22  -0.06     0.14  -0.17  -0.22     0.00  -0.01  -0.01
  17   6    -0.05  -0.20   0.13     0.05  -0.06   0.00    -0.00  -0.01   0.01
  18   6    -0.07  -0.10   0.10     0.02   0.06  -0.04    -0.00   0.00   0.03
  19   7    -0.08  -0.12   0.11     0.04   0.13  -0.08    -0.00  -0.05   0.05
  20   6    -0.08  -0.12   0.12     0.08   0.00  -0.02    -0.02  -0.02   0.03
  21   8    -0.18   0.15   0.08     0.28   0.09  -0.02    -0.11   0.01   0.02
  22   6     0.01   0.03  -0.07    -0.03   0.01   0.06     0.02  -0.02  -0.05
  23   6     0.02   0.02  -0.06    -0.06   0.01   0.05    -0.00  -0.02  -0.05
  24  16     0.06  -0.04  -0.10    -0.14   0.03   0.13    -0.09  -0.02  -0.03
  25   6     0.03   0.20   0.06    -0.07  -0.13  -0.05    -0.01   0.01  -0.02
  26   6    -0.07  -0.13  -0.11    -0.01   0.18   0.04     0.06  -0.01   0.05
  27   6     0.01   0.05  -0.06    -0.02  -0.04   0.05     0.02   0.02  -0.03
  28   8     0.17   0.08  -0.11    -0.12  -0.07   0.08     0.10   0.06  -0.04
  29   8    -0.04  -0.03   0.06     0.01  -0.01  -0.02     0.00   0.03   0.03
  30   1    -0.08  -0.08   0.09    -0.10  -0.07   0.09    -0.01   0.02   0.01
  31   1     0.10   0.08   0.15     0.08   0.02   0.13    -0.00  -0.02  -0.00
  32   1     0.07   0.05  -0.06     0.02   0.02  -0.02    -0.01  -0.01   0.02
  33   1    -0.03   0.02  -0.01    -0.06  -0.03   0.05     0.01  -0.01   0.01
  34   1    -0.02   0.02   0.03     0.05   0.08  -0.08     0.01  -0.01  -0.01
  35   1     0.01   0.02   0.03     0.06   0.09  -0.08     0.00  -0.01  -0.01
  36   1     0.04  -0.01   0.01    -0.03  -0.03   0.05    -0.01   0.00  -0.00
  37   1    -0.03  -0.08  -0.04     0.04  -0.05  -0.08    -0.01   0.00   0.02
  38   1    -0.02  -0.05   0.05    -0.01  -0.02   0.02    -0.00  -0.00   0.01
  39   1    -0.04  -0.01   0.04    -0.01   0.01  -0.02     0.01   0.01   0.01
  40   1     0.03   0.00  -0.03    -0.03   0.01   0.02     0.03  -0.02  -0.02
  41   1     0.01   0.09   0.00    -0.04  -0.07  -0.02     0.21   0.20   0.20
  42   1     0.01   0.09   0.02    -0.03  -0.05  -0.00     0.13  -0.30  -0.17
  43   1     0.00   0.04   0.07     0.00  -0.03  -0.05    -0.35   0.10  -0.05
  44   1    -0.08  -0.03  -0.06     0.05   0.04   0.03     0.18  -0.08   0.40
  45   1    -0.01  -0.10  -0.03    -0.00   0.10   0.00     0.07   0.39  -0.14
  46   1    -0.00  -0.03  -0.02    -0.03   0.05   0.00    -0.18  -0.29  -0.18
  47   1     0.02  -0.02   0.03    -0.01   0.00  -0.02     0.01   0.01   0.01
                     22                     23                     24
                        a                      a                      a 
 Frequencies --   243.8323               257.6475               271.4208
 Red. masses --    14.7078                12.1369                 6.1236
 Frc consts  --     0.0000                 0.0000                 0.0000
 IR Inten    --     2.1543                 7.2120                 0.2034
 Raman Activ --     0.0000                 0.0000                 0.0000
 Depolar     --     0.0000                 0.0000                 0.0000
 Atom AN      X      Y      Z        X      Y      Z        X      Y      Z
   1   6     0.15   0.09  -0.12    -0.03   0.03   0.04    -0.01   0.05   0.01
   2   6     0.09  -0.10   0.12    -0.04   0.02  -0.06    -0.03  -0.00  -0.03
   3   6     0.03  -0.13   0.06    -0.03   0.02  -0.08    -0.03  -0.00  -0.05
   4   6    -0.01  -0.13  -0.11    -0.01   0.03   0.00    -0.02  -0.01  -0.02
   5   7     0.07  -0.17  -0.07    -0.03   0.04   0.04    -0.02  -0.01   0.02
   6   8     0.13  -0.15   0.13    -0.05   0.03  -0.02    -0.02  -0.01   0.01
   7   6    -0.01  -0.05  -0.17     0.03   0.03   0.02     0.02   0.01  -0.01
   8   6    -0.13   0.18  -0.07     0.06  -0.03  -0.01     0.03   0.00  -0.03
   9   6    -0.13   0.19   0.15     0.03  -0.07  -0.03     0.00  -0.03  -0.00
  10   6    -0.05   0.15   0.19     0.01  -0.07  -0.03     0.00  -0.04   0.01
  11   6     0.09   0.04  -0.01     0.00  -0.00  -0.02     0.02  -0.00  -0.02
  12   6     0.02  -0.04  -0.16     0.03   0.03   0.02     0.03   0.01  -0.01
  13  17    -0.29   0.18  -0.01     0.08  -0.03   0.05     0.03   0.01   0.05
  14   6     0.00  -0.13   0.01    -0.02   0.02  -0.01    -0.02   0.00  -0.01
  15   8    -0.17  -0.25   0.03     0.04   0.08   0.02     0.01   0.03   0.02
  16   7     0.06  -0.03  -0.13    -0.04  -0.03   0.06    -0.03  -0.03   0.02
  17   6     0.02   0.02  -0.04    -0.04  -0.05  -0.02    -0.00  -0.05   0.01
  18   6     0.03   0.07  -0.04    -0.07  -0.02  -0.10     0.00  -0.04   0.02
  19   7     0.05   0.08  -0.05    -0.06   0.06  -0.15     0.00   0.04   0.00
  20   6     0.07   0.03  -0.04     0.01   0.02  -0.09    -0.02  -0.01  -0.00
  21   8     0.21   0.03  -0.03     0.25  -0.01  -0.07    -0.10  -0.01  -0.01
  22   6     0.01  -0.01   0.06    -0.11   0.01   0.08     0.03   0.07  -0.02
  23   6    -0.02  -0.01   0.06    -0.03   0.02   0.10     0.02   0.05   0.03
  24  16    -0.01   0.10   0.07     0.29   0.15  -0.17    -0.08  -0.11   0.22
  25   6     0.02  -0.08   0.02     0.21   0.07   0.22    -0.18  -0.17  -0.17
  26   6    -0.04   0.00   0.00    -0.15  -0.07  -0.10     0.08   0.13   0.11
  27   6     0.01  -0.03   0.06    -0.12  -0.06   0.11     0.08   0.06  -0.07
  28   8    -0.10  -0.06   0.09    -0.25  -0.15   0.12     0.14   0.08  -0.09
  29   8     0.05   0.04  -0.03    -0.14  -0.10   0.09     0.10   0.05  -0.11
  30   1     0.09  -0.00  -0.06    -0.03   0.04   0.02    -0.01   0.03   0.01
  31   1    -0.02   0.09  -0.03    -0.00  -0.01   0.01    -0.01   0.02   0.00
  32   1     0.07   0.04  -0.09     0.00  -0.00   0.04     0.01   0.01   0.01
  33   1    -0.08   0.08  -0.05     0.03  -0.01   0.00     0.01   0.00  -0.01
  34   1    -0.06   0.06   0.07     0.01  -0.03  -0.01    -0.00  -0.01   0.00
  35   1    -0.01   0.04   0.10    -0.01  -0.03  -0.01    -0.00  -0.02   0.01
  36   1     0.08  -0.01   0.01    -0.01   0.01  -0.01     0.00   0.00  -0.01
  37   1     0.02   0.01  -0.01    -0.02  -0.01   0.03    -0.02  -0.00   0.03
  38   1     0.00   0.01   0.00    -0.02  -0.02  -0.01     0.00  -0.01  -0.00
  39   1     0.01   0.02  -0.01    -0.05  -0.01  -0.03    -0.00  -0.03  -0.00
  40   1    -0.02   0.00   0.02    -0.08   0.02   0.03     0.02   0.03  -0.01
  41   1     0.07   0.02   0.08     0.23   0.15   0.25     0.11   0.10   0.11
  42   1     0.05  -0.12  -0.05     0.19  -0.15  -0.10     0.02  -0.37  -0.14
  43   1    -0.09   0.01  -0.03    -0.17   0.07   0.07    -0.35   0.06  -0.18
  44   1    -0.00  -0.01   0.03    -0.14   0.01  -0.14    -0.07   0.10  -0.27
  45   1     0.00   0.03  -0.02    -0.02  -0.16  -0.03    -0.05  -0.23   0.19
  46   1    -0.04  -0.02  -0.02    -0.02   0.06   0.02     0.20   0.27   0.19
  47   1    -0.01   0.02  -0.02    -0.03  -0.04   0.02     0.02   0.01  -0.03
                     25                     26                     27
                        a                      a                      a 
 Frequencies --   276.2724               304.6091               307.7164
 Red. masses --    12.5158                12.3996                12.2166
 Frc consts  --     0.0000                 0.0000                 0.0000
 IR Inten    --     1.1283                 4.9996                 0.5785
 Raman Activ --     0.0000                 0.0000                 0.0000
 Depolar     --     0.0000                 0.0000                 0.0000
 Atom AN      X      Y      Z        X      Y      Z        X      Y      Z
   1   6     0.02  -0.41  -0.04     0.06   0.01   0.00     0.04  -0.14  -0.03
   2   6     0.16   0.01  -0.03     0.06  -0.00   0.03     0.12   0.06   0.11
   3   6     0.11   0.02  -0.07     0.06  -0.00   0.11     0.08   0.05   0.20
   4   6     0.08  -0.01  -0.06     0.05   0.05   0.09     0.06   0.06   0.09
   5   7     0.17  -0.03   0.01     0.04   0.05  -0.02     0.10   0.05  -0.08
   6   8     0.18   0.02   0.03     0.03   0.02  -0.07     0.11   0.08  -0.06
   7   6    -0.07  -0.11   0.01     0.01   0.04   0.05     0.01   0.03   0.04
   8   6    -0.18  -0.02   0.11     0.02   0.02   0.04     0.01   0.02   0.04
   9   6    -0.03   0.17   0.03     0.01   0.02   0.02     0.01   0.03   0.02
  10   6     0.03   0.20  -0.01    -0.05   0.04  -0.01    -0.04   0.05  -0.00
  11   6    -0.06  -0.04   0.11    -0.07   0.07   0.02    -0.06   0.06   0.02
  12   6    -0.13  -0.12   0.04    -0.06   0.07   0.02    -0.06   0.06   0.01
  13  17    -0.17   0.06  -0.15    -0.03  -0.09  -0.11    -0.04  -0.08  -0.11
  14   6     0.05   0.07   0.06     0.05  -0.04  -0.02    -0.02   0.03  -0.01
  15   8     0.08   0.08   0.02    -0.04  -0.10  -0.01    -0.12  -0.06  -0.08
  16   7    -0.05   0.21   0.35     0.11  -0.06  -0.24     0.03  -0.04  -0.22
  17   6    -0.02   0.13  -0.04    -0.04   0.05   0.04     0.05  -0.05   0.02
  18   6    -0.02  -0.02  -0.03    -0.06   0.10   0.02     0.04  -0.11   0.06
  19   7    -0.02  -0.02  -0.03    -0.07  -0.06   0.05    -0.02  -0.18   0.10
  20   6    -0.05   0.09  -0.06    -0.02  -0.03   0.09     0.03  -0.10   0.10
  21   8    -0.18  -0.15  -0.05     0.12   0.08   0.10     0.14   0.08   0.11
  22   6    -0.02  -0.01  -0.03    -0.08  -0.05  -0.16    -0.00  -0.01   0.03
  23   6     0.02  -0.01  -0.01    -0.00  -0.07  -0.04     0.00   0.04  -0.07
  24  16     0.08  -0.02  -0.07    -0.14   0.09  -0.06     0.01  -0.24  -0.08
  25   6     0.06  -0.00   0.02     0.27  -0.10   0.04    -0.22   0.34   0.03
  26   6     0.03  -0.06   0.03     0.13  -0.13   0.28     0.04   0.28  -0.17
  27   6    -0.02   0.00  -0.02    -0.15   0.01  -0.18    -0.06  -0.02   0.04
  28   8     0.01   0.02  -0.02     0.09   0.19  -0.21    -0.08  -0.09   0.02
  29   8    -0.04  -0.02   0.02    -0.33  -0.15   0.14    -0.07  -0.11   0.06
  30   1     0.03  -0.10  -0.03     0.02  -0.02   0.00     0.05  -0.08  -0.03
  31   1     0.05  -0.22  -0.06     0.02   0.01   0.01     0.02  -0.07  -0.02
  32   1    -0.11  -0.14   0.06     0.02   0.01  -0.02    -0.06  -0.03  -0.02
  33   1    -0.09  -0.00   0.03     0.01   0.00   0.01     0.00   0.01   0.01
  34   1     0.01   0.08  -0.01     0.01  -0.00  -0.00     0.01   0.00   0.00
  35   1     0.05   0.10  -0.03    -0.02   0.01  -0.01    -0.02   0.01  -0.01
  36   1     0.01  -0.03   0.05    -0.02   0.02   0.00    -0.02   0.02   0.01
  37   1     0.02   0.04   0.02     0.04  -0.01  -0.06    -0.01  -0.02  -0.06
  38   1    -0.00   0.03  -0.04    -0.02   0.02   0.04     0.03   0.00   0.01
  39   1     0.00  -0.01  -0.01    -0.00   0.04   0.02     0.03  -0.02   0.03
  40   1    -0.00   0.00  -0.01     0.03   0.00  -0.06     0.01  -0.02   0.01
  41   1     0.06   0.03   0.05     0.11  -0.05   0.09    -0.01   0.23  -0.01
  42   1     0.05  -0.05  -0.03     0.14  -0.03  -0.06    -0.07   0.04   0.01
  43   1    -0.04   0.01   0.00     0.07  -0.03   0.02    -0.19   0.11   0.07
  44   1    -0.02  -0.01  -0.03     0.02  -0.03   0.03     0.04   0.10  -0.14
  45   1    -0.01  -0.07   0.04    -0.04  -0.10   0.19     0.01   0.05  -0.04
  46   1     0.05   0.01   0.03     0.18  -0.00   0.13    -0.01   0.17  -0.01
  47   1    -0.00  -0.00   0.01    -0.02  -0.04   0.11    -0.00  -0.05   0.02
                     28                     29                     30
                        a                      a                      a 
 Frequencies --   314.4507               339.2006               348.1656
 Red. masses --    14.5081                12.6129                14.4922
 Frc consts  --     0.0000                 0.0000                 0.0000
 IR Inten    --     4.6221                23.6911                 2.7540
 Raman Activ --     0.0000                 0.0000                 0.0000
 Depolar     --     0.0000                 0.0000                 0.0000
 Atom AN      X      Y      Z        X      Y      Z        X      Y      Z
   1   6     0.16   0.07   0.13     0.03   0.22   0.00    -0.10  -0.12   0.03
   2   6     0.04  -0.11  -0.36    -0.10  -0.16  -0.07    -0.02   0.10  -0.05
   3   6     0.07  -0.10  -0.12     0.05  -0.10  -0.20    -0.12   0.07   0.11
   4   6     0.07   0.02   0.25     0.03   0.04  -0.15    -0.09  -0.14   0.17
   5   7     0.08   0.01   0.32    -0.11   0.08   0.04     0.04  -0.19   0.10
   6   8     0.01  -0.08  -0.26    -0.19  -0.10   0.11     0.10  -0.01  -0.13
   7   6     0.04   0.09   0.12     0.02   0.02  -0.05    -0.06  -0.11   0.04
   8   6     0.12   0.13   0.02    -0.08  -0.08   0.07     0.08   0.10  -0.16
   9   6     0.02   0.04   0.07    -0.01  -0.00  -0.02    -0.00   0.01   0.03
  10   6    -0.17   0.05   0.07     0.07   0.04  -0.08    -0.05  -0.10   0.15
  11   6    -0.10   0.23  -0.02    -0.03  -0.09   0.06     0.14   0.07  -0.11
  12   6    -0.11   0.20  -0.01    -0.00  -0.06   0.03     0.05  -0.02  -0.07
  13  17    -0.13  -0.18  -0.26     0.02   0.04   0.04    -0.05   0.02   0.00
  14   6     0.04  -0.10   0.00     0.12  -0.09  -0.01    -0.07   0.09   0.04
  15   8    -0.10  -0.17   0.08    -0.00  -0.13   0.13     0.14   0.18  -0.07
  16   7    -0.01   0.02   0.14     0.09   0.16   0.12    -0.03  -0.04  -0.06
  17   6    -0.01   0.01  -0.00     0.03   0.19  -0.05    -0.00  -0.03   0.00
  18   6    -0.00  -0.02  -0.01     0.05   0.05  -0.01    -0.02   0.06  -0.03
  19   7     0.01   0.02  -0.02     0.06  -0.14   0.05     0.03  -0.04  -0.01
  20   6    -0.01   0.03  -0.03     0.02   0.08  -0.02     0.02  -0.05  -0.02
  21   8    -0.05  -0.04  -0.03    -0.04  -0.07   0.00    -0.04   0.03  -0.04
  22   6     0.01   0.01   0.03     0.05  -0.11  -0.01     0.04  -0.06   0.02
  23   6     0.01   0.01   0.01     0.03  -0.04  -0.15    -0.03  -0.02  -0.11
  24  16     0.04  -0.02   0.02    -0.25  -0.08  -0.19    -0.35   0.06  -0.20
  25   6    -0.04  -0.01  -0.01     0.06   0.26   0.05     0.16   0.13   0.05
  26   6    -0.03  -0.00  -0.05     0.19   0.10   0.08     0.11   0.02   0.17
  27   6     0.04   0.00   0.03     0.01  -0.06   0.06     0.10  -0.04   0.11
  28   8    -0.00  -0.03   0.04    -0.10  -0.09   0.09    -0.06  -0.12   0.15
  29   8     0.08   0.04  -0.04     0.03  -0.03   0.02     0.21   0.08  -0.08
  30   1    -0.08   0.09   0.10    -0.01   0.10   0.01    -0.04  -0.04   0.02
  31   1     0.10   0.02   0.08    -0.04   0.14   0.02     0.02  -0.09   0.00
  32   1     0.15   0.00   0.08     0.14   0.06  -0.02    -0.10  -0.04   0.04
  33   1     0.05   0.05  -0.01    -0.04  -0.04   0.04     0.04   0.07  -0.09
  34   1     0.01  -0.02   0.02     0.00   0.01  -0.01    -0.01   0.01   0.02
  35   1    -0.09  -0.02   0.03     0.05   0.04  -0.05    -0.04  -0.06   0.09
  36   1    -0.02   0.08  -0.02    -0.02  -0.04   0.04     0.08   0.04  -0.06
  37   1     0.02   0.00   0.01     0.07   0.06   0.02    -0.04   0.00   0.05
  38   1    -0.00  -0.00  -0.01     0.01   0.05  -0.03    -0.01  -0.00   0.02
  39   1    -0.00  -0.01  -0.01     0.06   0.03   0.01    -0.01   0.04   0.01
  40   1    -0.01   0.00   0.01     0.02  -0.07  -0.00    -0.01  -0.05   0.02
  41   1    -0.02  -0.01  -0.02     0.06   0.15   0.02     0.07   0.05   0.04
  42   1    -0.02  -0.00   0.01     0.04   0.10  -0.01     0.09   0.08  -0.03
  43   1    -0.01  -0.00  -0.01    -0.04   0.06   0.11     0.04   0.02   0.08
  44   1    -0.01  -0.00   0.00     0.09   0.04  -0.05     0.05   0.01   0.02
  45   1     0.01   0.01  -0.04    -0.01   0.00   0.11    -0.04  -0.01   0.14
  46   1    -0.03  -0.01  -0.02     0.14   0.09   0.07     0.13   0.03   0.08
  47   1     0.00   0.01  -0.03    -0.00   0.01   0.01     0.00   0.04  -0.06
                     31                     32                     33
                        a                      a                      a 
 Frequencies --   363.6643               383.3739               412.3769
 Red. masses --    13.4132                12.0469                17.6234
 Frc consts  --     0.0000                 0.0000                 0.0000
 IR Inten    --     3.3155                 1.3628                 5.7274
 Raman Activ --     0.0000                 0.0000                 0.0000
 Depolar     --     0.0000                 0.0000                 0.0000
 Atom AN      X      Y      Z        X      Y      Z        X      Y      Z
   1   6    -0.12   0.03   0.04     0.02  -0.02  -0.01     0.08  -0.05  -0.01
   2   6    -0.13  -0.02  -0.12     0.03   0.01   0.03     0.08   0.01   0.01
   3   6    -0.09   0.00   0.02     0.00   0.00   0.00    -0.03  -0.03  -0.08
   4   6    -0.09  -0.14   0.11     0.01   0.02  -0.01    -0.08  -0.03  -0.08
   5   7    -0.07  -0.16   0.16     0.02   0.01  -0.03     0.07  -0.08  -0.06
   6   8    -0.07  -0.11  -0.08     0.03   0.02   0.01     0.13  -0.02   0.06
   7   6    -0.08  -0.15  -0.00     0.01   0.03   0.01    -0.17   0.00   0.11
   8   6     0.02   0.05  -0.16     0.00   0.00   0.02    -0.07   0.24  -0.11
   9   6    -0.00   0.01   0.02    -0.01  -0.00  -0.01    -0.33  -0.01  -0.09
  10   6     0.02  -0.08   0.14    -0.02   0.01  -0.02    -0.28   0.02  -0.14
  11   6     0.17  -0.01  -0.09    -0.04   0.01   0.00    -0.13   0.11  -0.26
  12   6     0.06  -0.11  -0.07    -0.01   0.03   0.01    -0.17  -0.03   0.22
  13  17    -0.08   0.07   0.01     0.02  -0.02   0.01     0.44  -0.02   0.28
  14   6     0.05   0.05   0.04    -0.01  -0.02  -0.01     0.03  -0.07  -0.01
  15   8     0.18   0.11   0.00     0.01   0.00   0.00    -0.02  -0.10   0.02
  16   7     0.08   0.19   0.00    -0.02  -0.06  -0.02     0.01   0.02   0.10
  17   6     0.08   0.20  -0.10    -0.06  -0.03  -0.00     0.02   0.02  -0.01
  18   6     0.15   0.06   0.01    -0.08   0.01  -0.03     0.04   0.03  -0.01
  19   7     0.07  -0.02   0.07    -0.06   0.06  -0.06     0.05   0.01   0.00
  20   6     0.04   0.11  -0.00    -0.04   0.01  -0.04     0.02   0.02  -0.02
  21   8     0.07  -0.05   0.03     0.05  -0.01  -0.03    -0.02  -0.02  -0.02
  22   6     0.02  -0.04  -0.05    -0.02   0.15   0.05     0.03  -0.05  -0.02
  23   6     0.09  -0.03  -0.02     0.28   0.19  -0.24     0.01  -0.04   0.00
  24  16     0.16  -0.02   0.18    -0.06   0.03   0.29    -0.01   0.04   0.03
  25   6    -0.14   0.06  -0.04     0.02   0.21  -0.37    -0.02   0.01   0.03
  26   6     0.07   0.01  -0.13     0.23  -0.33  -0.01     0.03   0.02  -0.02
  27   6    -0.15  -0.01  -0.13    -0.06   0.09   0.15    -0.00  -0.03  -0.03
  28   8    -0.05   0.09  -0.14    -0.19  -0.18   0.09    -0.01   0.02  -0.01
  29   8    -0.32  -0.17   0.16    -0.03  -0.09   0.08    -0.04  -0.02   0.02
  30   1    -0.07   0.04   0.03     0.01  -0.01  -0.01     0.03  -0.04  -0.01
  31   1    -0.02   0.00   0.02     0.01  -0.01  -0.00     0.03  -0.03  -0.00
  32   1    -0.01  -0.00   0.03    -0.01  -0.00  -0.01    -0.00  -0.01  -0.01
  33   1     0.01   0.05  -0.09     0.00  -0.00   0.01     0.04   0.12  -0.09
  34   1    -0.01   0.02   0.02     0.00  -0.01  -0.00    -0.09  -0.04  -0.03
  35   1    -0.01  -0.04   0.08    -0.01   0.00  -0.01    -0.06   0.03  -0.04
  36   1     0.09   0.01  -0.05    -0.02   0.00   0.00    -0.03   0.11  -0.16
  37   1     0.05   0.07   0.01    -0.01  -0.02  -0.00     0.05  -0.02  -0.09
  38   1     0.04   0.05  -0.06    -0.03  -0.02   0.00     0.00   0.00  -0.00
  39   1     0.09   0.01   0.00    -0.03  -0.01  -0.02     0.01   0.01  -0.00
  40   1     0.06  -0.00  -0.03    -0.06   0.01   0.03     0.02  -0.01  -0.01
  41   1    -0.05   0.06  -0.06    -0.01   0.09  -0.15    -0.00   0.02   0.00
  42   1    -0.08  -0.00   0.03    -0.04   0.01  -0.05    -0.01   0.00   0.01
  43   1    -0.07   0.02  -0.01    -0.03   0.08  -0.14    -0.02   0.00   0.02
  44   1     0.02   0.00  -0.04    -0.05  -0.10   0.09     0.03   0.01  -0.02
  45   1     0.04   0.01  -0.06     0.05  -0.13   0.02     0.01   0.01  -0.00
  46   1    -0.02   0.01  -0.04     0.17  -0.20  -0.04     0.00   0.02   0.00
  47   1    -0.01  -0.05   0.12     0.02  -0.09  -0.01    -0.00   0.01   0.03
                     34                     35                     36
                        a                      a                      a 
 Frequencies --   428.8636               436.7703               445.8065
 Red. masses --    12.3990                13.3347                10.0278
 Frc consts  --     0.0000                 0.0000                 0.0000
 IR Inten    --    15.4517                14.5718                28.9350
 Raman Activ --     0.0000                 0.0000                 0.0000
 Depolar     --     0.0000                 0.0000                 0.0000
 Atom AN      X      Y      Z        X      Y      Z        X      Y      Z
   1   6    -0.01   0.06  -0.00    -0.00   0.02  -0.01    -0.00  -0.05   0.00
   2   6    -0.04  -0.05   0.10    -0.00  -0.01   0.06     0.02   0.03  -0.18
   3   6     0.04  -0.01   0.00     0.04   0.01  -0.10     0.06   0.04   0.03
   4   6     0.03   0.01  -0.00     0.06   0.07  -0.09     0.05   0.11  -0.01
   5   7    -0.05   0.03  -0.11    -0.03   0.11  -0.12     0.05   0.15   0.21
   6   8    -0.08  -0.04   0.05    -0.06   0.05   0.10    -0.02   0.11  -0.08
   7   6    -0.04  -0.09   0.12     0.02  -0.05   0.11    -0.06  -0.02  -0.14
   8   6     0.14   0.07  -0.11     0.23   0.04  -0.10    -0.10   0.02  -0.14
   9   6     0.01  -0.09   0.14     0.07  -0.17   0.23    -0.16  -0.03   0.03
  10   6     0.05  -0.00   0.03     0.14   0.02   0.01     0.07   0.02  -0.06
  11   6     0.11   0.11  -0.06     0.12   0.13  -0.00     0.07  -0.11  -0.04
  12   6    -0.17  -0.19   0.22    -0.23  -0.24   0.31    -0.05  -0.22   0.06
  13  17    -0.08   0.02  -0.12    -0.16   0.03  -0.21     0.08   0.07   0.08
  14   6     0.09  -0.02  -0.08    -0.04   0.03  -0.03     0.03   0.00   0.12
  15   8     0.13   0.05   0.01    -0.12   0.01  -0.00    -0.12  -0.14   0.05
  16   7     0.05   0.11  -0.05    -0.07  -0.08   0.07     0.13  -0.06  -0.20
  17   6    -0.13   0.20  -0.04     0.10  -0.18   0.07     0.06  -0.00   0.01
  18   6    -0.13  -0.08   0.02     0.07   0.04  -0.01     0.07  -0.06   0.05
  19   7    -0.20  -0.17   0.05     0.14   0.17  -0.07    -0.02   0.10   0.05
  20   6    -0.14   0.13   0.06     0.11  -0.12  -0.04    -0.00   0.08   0.05
  21   8     0.12  -0.04   0.15    -0.13   0.03  -0.11     0.03  -0.00   0.10
  22   6    -0.09   0.13   0.08     0.06  -0.09  -0.07    -0.04   0.12   0.06
  23   6    -0.02   0.10   0.02     0.01  -0.07  -0.03    -0.08   0.11  -0.03
  24  16     0.08  -0.22  -0.13    -0.05   0.14   0.09    -0.00  -0.21  -0.13
  25   6     0.04  -0.03  -0.05    -0.02   0.02   0.03     0.05  -0.01  -0.08
  26   6    -0.10  -0.04   0.04     0.07   0.02  -0.02    -0.12  -0.02   0.06
  27   6     0.01   0.12   0.10    -0.00  -0.09  -0.06    -0.03   0.08   0.04
  28   8     0.11  -0.04   0.00    -0.10   0.02   0.02     0.00  -0.02  -0.02
  29   8     0.13   0.07  -0.11    -0.08  -0.05   0.08    -0.01  -0.01  -0.00
  30   1     0.01  -0.01  -0.01     0.03   0.01  -0.02    -0.03   0.05   0.02
  31   1    -0.03   0.06   0.01    -0.03   0.02  -0.02     0.03  -0.05  -0.00
  32   1     0.02   0.03  -0.04     0.00   0.00  -0.00    -0.00  -0.04   0.07
  33   1     0.09   0.09  -0.11     0.13   0.08  -0.11    -0.02   0.03  -0.07
  34   1    -0.00  -0.03   0.05     0.01  -0.06   0.08    -0.07   0.00   0.04
  35   1     0.03   0.02  -0.03     0.07   0.04  -0.07     0.06   0.05  -0.02
  36   1     0.09   0.09  -0.09     0.10   0.10  -0.08     0.05  -0.02  -0.03
  37   1     0.14  -0.02  -0.27    -0.10  -0.01   0.14    -0.16   0.15   0.52
  38   1    -0.04   0.04  -0.04     0.04  -0.03   0.05     0.02  -0.01  -0.04
  39   1     0.01  -0.03   0.01    -0.03   0.01  -0.01     0.02  -0.03   0.01
  40   1    -0.06   0.03   0.03     0.03  -0.02  -0.02    -0.01   0.02   0.02
  41   1     0.01  -0.04   0.02    -0.01   0.03  -0.01     0.01  -0.05   0.00
  42   1     0.03  -0.03  -0.03    -0.01   0.02   0.02     0.03   0.01  -0.04
  43   1     0.02   0.00  -0.05    -0.02   0.00   0.03     0.05  -0.00  -0.05
  44   1    -0.07  -0.01   0.04     0.05   0.01  -0.02    -0.07  -0.01   0.05
  45   1    -0.02  -0.03  -0.00     0.01   0.02   0.00    -0.04  -0.02   0.02
  46   1    -0.01  -0.04  -0.00     0.01   0.03   0.00    -0.01  -0.04   0.01
  47   1     0.01  -0.04  -0.10    -0.01   0.03   0.08     0.01  -0.05  -0.03
                     37                     38                     39
                        a                      a                      a 
 Frequencies --   453.7783               463.1816               505.2498
 Red. masses --     8.8738                15.5551                12.8950
 Frc consts  --     0.0000                 0.0000                 0.0000
 IR Inten    --    48.1312                 3.7187                30.9801
 Raman Activ --     0.0000                 0.0000                 0.0000
 Depolar     --     0.0000                 0.0000                 0.0000
 Atom AN      X      Y      Z        X      Y      Z        X      Y      Z
   1   6    -0.03   0.07   0.03     0.01  -0.02  -0.00     0.00  -0.01   0.00
   2   6    -0.00   0.15  -0.10     0.03   0.03  -0.07     0.01  -0.00   0.02
   3   6     0.02   0.11   0.16     0.03   0.02   0.05     0.01   0.00   0.04
   4   6     0.02   0.13   0.10     0.04   0.08   0.01     0.01   0.01   0.03
   5   7     0.04   0.18   0.20     0.03   0.11   0.11     0.01   0.02   0.02
   6   8    -0.01   0.20  -0.15    -0.01   0.09  -0.06    -0.01   0.01  -0.03
   7   6    -0.09  -0.04  -0.15    -0.01   0.02  -0.10    -0.01  -0.01  -0.01
   8   6    -0.12  -0.05  -0.16    -0.04  -0.00  -0.08    -0.02  -0.00  -0.01
   9   6    -0.08  -0.01  -0.01    -0.07  -0.04   0.04    -0.02   0.01  -0.01
  10   6     0.14  -0.04   0.01     0.08   0.02  -0.04     0.00  -0.00   0.00
  11   6     0.14  -0.14   0.00     0.04  -0.06   0.01     0.01  -0.02  -0.01
  12   6     0.05  -0.18  -0.03    -0.03  -0.12   0.04     0.00  -0.02  -0.01
  13  17    -0.00   0.07   0.05     0.01   0.04   0.01     0.01   0.00   0.01
  14   6     0.07  -0.05   0.01     0.00  -0.04   0.07     0.01  -0.02  -0.03
  15   8    -0.14  -0.24  -0.07     0.04  -0.05   0.03     0.03   0.01   0.01
  16   7     0.01  -0.04   0.20     0.01  -0.07  -0.05     0.06  -0.05  -0.22
  17   6     0.04  -0.11   0.05    -0.20   0.06  -0.08    -0.17   0.15   0.18
  18   6    -0.00  -0.00  -0.00    -0.21   0.04  -0.12    -0.27   0.04   0.08
  19   7     0.03   0.11  -0.04    -0.16  -0.50  -0.01    -0.06   0.35  -0.14
  20   6     0.03  -0.07   0.01    -0.11  -0.11  -0.10    -0.06   0.28   0.08
  21   8    -0.09   0.01  -0.02     0.15   0.02  -0.10    -0.12  -0.06   0.16
  22   6    -0.00  -0.00  -0.03     0.00  -0.11  -0.01    -0.11  -0.19  -0.19
  23   6    -0.01  -0.00  -0.03     0.16  -0.10   0.12     0.01  -0.23  -0.12
  24  16    -0.01  -0.01   0.00    -0.02   0.36   0.21     0.23  -0.11   0.08
  25   6     0.02   0.01  -0.01    -0.09  -0.02   0.12    -0.05   0.01   0.06
  26   6     0.01  -0.01   0.00     0.14   0.01  -0.08     0.19  -0.06  -0.11
  27   6     0.01  -0.02  -0.00     0.02  -0.02   0.00     0.08  -0.22  -0.03
  28   8    -0.04  -0.01   0.02     0.12   0.03  -0.01     0.01   0.01   0.13
  29   8    -0.00  -0.01   0.02     0.07   0.06  -0.08     0.11   0.07  -0.05
  30   1    -0.07  -0.02   0.04    -0.01   0.01   0.01     0.01   0.00  -0.00
  31   1     0.05  -0.01   0.03     0.02  -0.02  -0.00    -0.00  -0.00  -0.00
  32   1    -0.03   0.03  -0.01    -0.00  -0.01   0.03    -0.00  -0.00   0.00
  33   1    -0.04  -0.01  -0.06    -0.01   0.01  -0.03    -0.01   0.00  -0.01
  34   1    -0.05   0.03   0.03    -0.04  -0.01   0.03    -0.01   0.01  -0.00
  35   1     0.07   0.02   0.02     0.05   0.03  -0.02     0.00   0.00   0.00
  36   1     0.06  -0.04   0.00     0.02  -0.02  -0.00     0.00  -0.00  -0.00
  37   1     0.18  -0.19  -0.53    -0.03   0.04   0.15    -0.00   0.03   0.05
  38   1    -0.00  -0.03   0.05    -0.09  -0.01  -0.01    -0.08   0.02   0.05
  39   1    -0.03  -0.01  -0.01    -0.03   0.05  -0.00    -0.13  -0.06  -0.03
  40   1    -0.00  -0.01  -0.01    -0.03   0.02   0.00    -0.04  -0.07  -0.05
  41   1     0.02   0.01   0.01    -0.04   0.04  -0.03     0.00   0.08  -0.02
  42   1     0.02  -0.01  -0.02    -0.07  -0.01   0.09    -0.02   0.03   0.02
  43   1    -0.01   0.01   0.00    -0.04  -0.00   0.04    -0.06  -0.01   0.11
  44   1     0.00  -0.00   0.00     0.06   0.01  -0.05     0.11  -0.02  -0.06
  45   1    -0.00  -0.00   0.01     0.06   0.01  -0.05     0.03   0.01  -0.01
  46   1     0.02  -0.00   0.00    -0.02   0.04  -0.02     0.05   0.02  -0.01
  47   1     0.00   0.01   0.02    -0.02   0.03  -0.04    -0.06   0.16   0.02
                     40                     41                     42
                        a                      a                      a 
 Frequencies --   513.7711               539.8101               579.2129
 Red. masses --    11.6637                11.4250                12.9123
 Frc consts  --     0.0000                 0.0000                 0.0000
 IR Inten    --     1.3608                 7.6231                44.0187
 Raman Activ --     0.0000                 0.0000                 0.0000
 Depolar     --     0.0000                 0.0000                 0.0000
 Atom AN      X      Y      Z        X      Y      Z        X      Y      Z
   1   6    -0.09   0.01  -0.00     0.20  -0.04  -0.01    -0.13   0.03  -0.00
   2   6     0.01   0.19  -0.05     0.05  -0.24   0.13    -0.05   0.09  -0.11
   3   6    -0.06   0.09  -0.21     0.24  -0.08   0.07    -0.05   0.04  -0.01
   4   6    -0.06   0.09  -0.14     0.18   0.14   0.11    -0.05  -0.06  -0.06
   5   7     0.04   0.11  -0.15    -0.04   0.22   0.02     0.02  -0.09  -0.04
   6   8     0.08   0.22   0.16    -0.23  -0.08  -0.08     0.09   0.01   0.09
   7   6    -0.22  -0.17   0.26    -0.15  -0.19   0.09     0.03   0.02   0.01
   8   6    -0.04  -0.14   0.06    -0.17  -0.05   0.03     0.05   0.02   0.01
   9   6     0.21   0.11  -0.19    -0.01   0.17  -0.18     0.01  -0.03   0.04
  10   6    -0.06  -0.24   0.24    -0.14  -0.11   0.15     0.01   0.03  -0.03
  11   6     0.15   0.15  -0.07     0.11  -0.01  -0.17    -0.03   0.00   0.03
  12   6     0.06   0.08  -0.04     0.02  -0.09  -0.06     0.00   0.03   0.00
  13  17    -0.07  -0.01  -0.02     0.03   0.01   0.06    -0.00  -0.01  -0.01
  14   6     0.12  -0.12   0.00     0.01   0.09  -0.12     0.10  -0.03   0.06
  15   8    -0.14  -0.29   0.08     0.03   0.20  -0.00     0.02  -0.12   0.03
  16   7     0.12  -0.08   0.05    -0.06   0.11  -0.05     0.12   0.13  -0.07
  17   6    -0.02   0.01  -0.02     0.02   0.01   0.12    -0.01   0.20   0.14
  18   6    -0.00   0.00   0.00    -0.10  -0.02  -0.06    -0.16   0.04  -0.10
  19   7    -0.03  -0.05   0.02     0.00  -0.04  -0.10    -0.01  -0.23  -0.11
  20   6    -0.04   0.10  -0.02     0.10  -0.25   0.02     0.14  -0.30   0.05
  21   8     0.04  -0.04   0.02    -0.11   0.07  -0.06    -0.14   0.08  -0.05
  22   6    -0.01  -0.01   0.01     0.01   0.03  -0.04     0.04  -0.02  -0.17
  23   6     0.02  -0.02   0.01     0.00   0.05   0.03    -0.20   0.15  -0.11
  24  16    -0.01   0.01  -0.00     0.02   0.01   0.02     0.23  -0.03   0.19
  25   6    -0.01  -0.00   0.01     0.00  -0.00  -0.01     0.05   0.08  -0.16
  26   6     0.02  -0.01  -0.01    -0.03   0.01   0.02    -0.24   0.10   0.11
  27   6    -0.01   0.01   0.01     0.02   0.01  -0.00     0.14  -0.09  -0.08
  28   8     0.03   0.01  -0.01    -0.06  -0.02   0.01    -0.18  -0.04   0.05
  29   8    -0.00   0.01  -0.02     0.02  -0.01   0.03     0.10  -0.04   0.09
  30   1    -0.03  -0.01   0.00     0.10   0.02  -0.02    -0.07   0.01   0.02
  31   1     0.02  -0.04  -0.01    -0.03   0.06  -0.01     0.00  -0.02   0.01
  32   1    -0.09  -0.00   0.02     0.15  -0.01  -0.03    -0.06   0.00   0.02
  33   1     0.02  -0.03   0.00    -0.05   0.01  -0.02     0.01   0.00   0.01
  34   1     0.11   0.12  -0.13     0.04   0.11  -0.11    -0.00  -0.03   0.02
  35   1    -0.06  -0.12   0.11    -0.04  -0.04   0.10    -0.00   0.01  -0.02
  36   1     0.07   0.09  -0.07     0.08   0.03  -0.09    -0.02  -0.01   0.02
  37   1     0.01   0.02   0.12    -0.05   0.03   0.04     0.06   0.07   0.03
  38   1    -0.04  -0.03  -0.04     0.04   0.06   0.12     0.01   0.11   0.16
  39   1     0.01   0.01   0.01    -0.06  -0.01  -0.02    -0.04  -0.00  -0.03
  40   1    -0.00  -0.00   0.00    -0.03   0.03  -0.00    -0.00  -0.00  -0.04
  41   1    -0.00   0.00  -0.00    -0.00  -0.02   0.00     0.02  -0.04   0.02
  42   1    -0.01   0.00   0.01    -0.00  -0.01  -0.00     0.06   0.04  -0.09
  43   1    -0.00  -0.00   0.01     0.01   0.00  -0.03     0.05   0.02  -0.07
  44   1     0.01  -0.00  -0.01    -0.02   0.00   0.01    -0.07   0.02   0.06
  45   1     0.01  -0.00  -0.01    -0.00  -0.00  -0.00    -0.10   0.04   0.07
  46   1    -0.00   0.00  -0.00    -0.01  -0.00   0.00    -0.01  -0.00   0.03
  47   1    -0.00  -0.00  -0.02     0.02  -0.00   0.02     0.03   0.11   0.14
                     43                     44                     45
                        a                      a                      a 
 Frequencies --   581.7884               607.1772               615.5503
 Red. masses --    12.7265                11.3959                11.9298
 Frc consts  --     0.0000                 0.0000                 0.0000
 IR Inten    --    45.7813                68.1569                15.5604
 Raman Activ --     0.0000                 0.0000                 0.0000
 Depolar     --     0.0000                 0.0000                 0.0000
 Atom AN      X      Y      Z        X      Y      Z        X      Y      Z
   1   6     0.11  -0.03  -0.00    -0.03   0.01  -0.02     0.14  -0.04  -0.06
   2   6     0.05  -0.06   0.06    -0.04  -0.01  -0.26    -0.00  -0.08  -0.51
   3   6     0.03  -0.03  -0.00     0.03   0.01   0.10     0.05  -0.03   0.26
   4   6     0.03   0.05   0.03     0.03  -0.01  -0.03     0.03   0.03   0.03
   5   7    -0.02   0.07   0.03    -0.01  -0.01  -0.11    -0.07   0.05  -0.25
   6   8    -0.06   0.01  -0.05     0.01  -0.02   0.21    -0.04  -0.01   0.43
   7   6    -0.03  -0.01  -0.00     0.04  -0.02   0.02    -0.00  -0.00  -0.02
   8   6    -0.04  -0.03  -0.01     0.02   0.03   0.05    -0.03  -0.03   0.01
   9   6     0.00   0.02  -0.03     0.01   0.02  -0.00     0.02   0.02  -0.02
  10   6     0.00  -0.03   0.03    -0.05   0.01   0.00    -0.02  -0.02   0.03
  11   6     0.03   0.01  -0.01    -0.00  -0.02  -0.04     0.02   0.02  -0.02
  12   6    -0.01  -0.02   0.01     0.01  -0.02   0.00    -0.03  -0.03   0.02
  13  17     0.00   0.00   0.01    -0.00  -0.01  -0.01     0.01   0.00   0.00
  14   6    -0.08   0.01  -0.02    -0.00   0.06   0.14    -0.14   0.11   0.25
  15   8     0.01   0.08  -0.02     0.02  -0.03  -0.04     0.06   0.06  -0.12
  16   7    -0.11  -0.08   0.10     0.02   0.09   0.03    -0.04  -0.05  -0.09
  17   6    -0.02  -0.15  -0.22     0.07   0.01   0.00    -0.03  -0.05  -0.04
  18   6     0.17  -0.02   0.08     0.08   0.19  -0.10    -0.03  -0.10   0.06
  19   7    -0.04  -0.06   0.17    -0.05   0.15  -0.03     0.00  -0.01   0.02
  20   6    -0.18   0.12  -0.05    -0.00  -0.36   0.06    -0.04   0.16  -0.01
  21   8     0.18  -0.03   0.01     0.01   0.11  -0.03     0.02  -0.04   0.04
  22   6    -0.05  -0.16  -0.05    -0.22  -0.06   0.06     0.08   0.03  -0.03
  23   6    -0.31   0.01  -0.30    -0.08  -0.13  -0.14     0.05   0.05   0.06
  24  16     0.18   0.12   0.27     0.10  -0.08   0.07    -0.06   0.04  -0.04
  25   6     0.06   0.13  -0.19    -0.01   0.00   0.00     0.00  -0.01   0.01
  26   6    -0.19   0.07   0.08     0.06  -0.04  -0.04     0.00   0.01   0.01
  27   6    -0.00  -0.18  -0.02    -0.23   0.05   0.22     0.10  -0.04  -0.10
  28   8     0.10   0.03   0.06     0.31   0.01   0.05    -0.13  -0.00  -0.02
  29   8     0.01   0.03  -0.08    -0.13   0.10  -0.19     0.06  -0.04   0.07
  30   1     0.05  -0.01  -0.01    -0.09   0.04   0.03    -0.12   0.06   0.07
  31   1     0.01   0.01  -0.01     0.04  -0.01   0.02     0.13  -0.03   0.04
  32   1     0.05  -0.01  -0.01     0.03  -0.01   0.03     0.14  -0.04   0.04
  33   1    -0.01  -0.00  -0.01     0.00   0.01   0.01    -0.01  -0.00  -0.00
  34   1     0.00   0.02  -0.01     0.01  -0.01  -0.01     0.01   0.02  -0.02
  35   1     0.00  -0.01   0.01    -0.01   0.01   0.01    -0.01  -0.00   0.01
  36   1     0.01   0.01  -0.01     0.01  -0.00  -0.02     0.01   0.01  -0.01
  37   1    -0.04  -0.05  -0.01     0.01   0.02  -0.01     0.01  -0.05  -0.11
  38   1    -0.01  -0.09  -0.17     0.03   0.05   0.10    -0.01  -0.04  -0.07
  39   1     0.09   0.01   0.04     0.05   0.04  -0.03    -0.02  -0.03   0.02
  40   1     0.05  -0.13  -0.03    -0.09  -0.07   0.03     0.04   0.03  -0.01
  41   1     0.04   0.02   0.01     0.01   0.04  -0.00    -0.01  -0.01  -0.00
  42   1     0.09   0.11  -0.13     0.01   0.04  -0.02    -0.01  -0.02   0.01
  43   1     0.04   0.01   0.02    -0.02  -0.02   0.08     0.00   0.01  -0.03
  44   1    -0.01   0.01   0.05     0.05  -0.01  -0.02    -0.02   0.00   0.00
  45   1    -0.14   0.06   0.11    -0.02   0.01   0.02     0.02  -0.01  -0.02
  46   1     0.04  -0.00   0.03     0.04  -0.00  -0.00    -0.01  -0.00  -0.00
  47   1    -0.09   0.15   0.01    -0.12  -0.14  -0.30     0.04   0.09   0.14
                     46                     47                     48
                        a                      a                      a 
 Frequencies --   624.2807               649.6756               652.8450
 Red. masses --    11.6014                 7.2799                11.2083
 Frc consts  --     0.0000                 0.0000                 0.0000
 IR Inten    --    10.0857               114.1180                12.3019
 Raman Activ --     0.0000                 0.0000                 0.0000
 Depolar     --     0.0000                 0.0000                 0.0000
 Atom AN      X      Y      Z        X      Y      Z        X      Y      Z
   1   6     0.24  -0.10  -0.02    -0.00   0.00  -0.01     0.05  -0.01   0.01
   2   6     0.11  -0.06  -0.00    -0.01   0.00  -0.05     0.02  -0.02   0.09
   3   6    -0.09  -0.08  -0.02     0.02   0.01   0.04    -0.04  -0.02  -0.04
   4   6    -0.17   0.03   0.05     0.02   0.01   0.18    -0.03  -0.03  -0.42
   5   7    -0.05  -0.03  -0.02    -0.01   0.01  -0.13    -0.01  -0.02   0.29
   6   8     0.02  -0.02   0.01     0.00   0.01   0.08    -0.03  -0.02  -0.16
   7   6    -0.28   0.11  -0.12    -0.04  -0.04   0.04     0.13   0.12  -0.13
   8   6    -0.12  -0.28  -0.37     0.01   0.04  -0.05    -0.02  -0.10   0.15
   9   6     0.07  -0.12   0.00    -0.05  -0.02   0.03     0.15   0.07  -0.08
  10   6     0.25  -0.10   0.04     0.03   0.03  -0.04    -0.10  -0.08   0.11
  11   6    -0.02   0.34   0.32    -0.01  -0.05   0.03     0.05   0.14  -0.09
  12   6    -0.17   0.19  -0.02     0.05   0.03  -0.06    -0.14  -0.10   0.17
  13  17     0.08   0.03   0.09    -0.00   0.00   0.00     0.00  -0.00  -0.01
  14   6    -0.05  -0.06   0.01     0.05  -0.03  -0.17    -0.17   0.11   0.44
  15   8     0.08   0.02   0.02    -0.04   0.03   0.04     0.07  -0.03  -0.14
  16   7    -0.04   0.06  -0.02     0.01  -0.04  -0.01     0.00  -0.03  -0.10
  17   6    -0.01   0.07   0.01    -0.00  -0.01   0.08    -0.03   0.02  -0.01
  18   6     0.02   0.08  -0.03    -0.07  -0.12   0.07    -0.02   0.04   0.01
  19   7     0.01   0.03  -0.01     0.09  -0.09  -0.03     0.02  -0.00  -0.00
  20   6     0.03  -0.10   0.02     0.09   0.20  -0.06     0.01   0.02   0.00
  21   8    -0.01   0.03  -0.01    -0.05  -0.07  -0.04    -0.01  -0.00   0.01
  22   6    -0.01   0.01   0.00     0.09  -0.07  -0.11     0.04  -0.01  -0.07
  23   6    -0.01  -0.01  -0.01    -0.16  -0.14  -0.15    -0.06  -0.07  -0.05
  24  16     0.02  -0.06  -0.01     0.07   0.12   0.11     0.04  -0.01   0.03
  25   6    -0.00  -0.01   0.01    -0.02  -0.04   0.03    -0.02  -0.03   0.03
  26   6     0.00  -0.00  -0.00    -0.05   0.02   0.01    -0.01   0.00  -0.00
  27   6    -0.01   0.03   0.02     0.03   0.25   0.04     0.05   0.11  -0.01
  28   8     0.01  -0.00  -0.00    -0.12  -0.01  -0.06    -0.10  -0.01  -0.03
  29   8    -0.01   0.01  -0.00     0.02   0.11   0.15     0.05   0.04   0.09
  30   1     0.07  -0.02  -0.01    -0.02   0.01   0.01     0.04  -0.02  -0.01
  31   1     0.06  -0.02  -0.01     0.01  -0.00   0.01    -0.01   0.01  -0.01
  32   1     0.08  -0.03  -0.01     0.01  -0.00   0.01     0.01   0.00  -0.02
  33   1    -0.03  -0.09  -0.09     0.00   0.01  -0.02    -0.01  -0.03   0.05
  34   1    -0.04   0.07   0.07    -0.02  -0.01   0.02     0.06   0.02  -0.05
  35   1     0.02  -0.07  -0.05     0.01   0.01  -0.00    -0.04  -0.03   0.01
  36   1    -0.05   0.10   0.09    -0.01  -0.02   0.02     0.03   0.06  -0.05
  37   1     0.01   0.03   0.01    -0.02  -0.01   0.02     0.04  -0.03  -0.12
  38   1     0.01   0.05   0.04    -0.01  -0.02  -0.01    -0.01   0.00   0.00
  39   1     0.02   0.02  -0.01    -0.06  -0.04   0.01    -0.01   0.00  -0.00
  40   1    -0.01  -0.00   0.00     0.03  -0.09  -0.03     0.02  -0.03  -0.02
  41   1    -0.00   0.00   0.00     0.01  -0.00   0.03     0.00  -0.00   0.02
  42   1    -0.00  -0.00   0.00     0.03   0.04  -0.03     0.01   0.01  -0.01
  43   1    -0.00  -0.00   0.01    -0.00  -0.03   0.07    -0.00  -0.02   0.03
  44   1     0.00  -0.00  -0.00     0.08   0.00  -0.02     0.04  -0.00  -0.01
  45   1     0.00  -0.00  -0.00    -0.08   0.06   0.06    -0.02   0.02   0.02
  46   1    -0.00   0.00  -0.00     0.00   0.04   0.02    -0.00   0.02   0.01
  47   1     0.01  -0.04  -0.03     0.23  -0.59  -0.26     0.12  -0.24  -0.07
                     49                     50                     51
                        a                      a                      a 
 Frequencies --   669.9951               678.0001               688.6360
 Red. masses --    12.7695                12.1479                12.3430
 Frc consts  --     0.0000                 0.0000                 0.0000
 IR Inten    --     9.7564                 2.9747                 6.1722
 Raman Activ --     0.0000                 0.0000                 0.0000
 Depolar     --     0.0000                 0.0000                 0.0000
 Atom AN      X      Y      Z        X      Y      Z        X      Y      Z
   1   6     0.24  -0.08  -0.01     0.13  -0.04  -0.00    -0.14   0.05   0.02
   2   6     0.11   0.00   0.03     0.04  -0.03   0.04    -0.07  -0.04   0.04
   3   6    -0.09  -0.04  -0.10    -0.02  -0.01  -0.09     0.13   0.04  -0.08
   4   6    -0.12   0.04  -0.03    -0.06   0.00  -0.16     0.17   0.03  -0.12
   5   7    -0.10   0.07   0.02    -0.05   0.02   0.09     0.09   0.08   0.04
   6   8    -0.07   0.12  -0.01    -0.07   0.01  -0.03    -0.05  -0.05  -0.02
   7   6    -0.12  -0.02   0.29    -0.14  -0.10   0.23    -0.14  -0.38   0.14
   8   6     0.06   0.24   0.05     0.06   0.11  -0.04     0.10  -0.09  -0.19
   9   6    -0.22  -0.08  -0.04    -0.10  -0.08   0.04     0.13  -0.06   0.27
  10   6     0.16  -0.08  -0.11     0.10  -0.00  -0.08    -0.11   0.25  -0.05
  11   6     0.05  -0.23   0.04    -0.03  -0.09   0.09    -0.20   0.01   0.09
  12   6     0.30   0.11   0.01     0.16   0.14  -0.08    -0.05   0.11  -0.38
  13  17    -0.14  -0.02  -0.11    -0.05  -0.01  -0.03     0.14   0.00   0.13
  14   6    -0.10  -0.04   0.15    -0.06   0.11   0.28    -0.02   0.14   0.20
  15   8     0.08  -0.03  -0.02     0.01  -0.03  -0.10    -0.04  -0.01  -0.08
  16   7    -0.06  -0.01   0.02     0.09   0.01  -0.14     0.04  -0.04   0.01
  17   6    -0.09   0.04  -0.11     0.10   0.03   0.15    -0.00  -0.07  -0.07
  18   6     0.06   0.26  -0.04    -0.09  -0.29   0.05     0.02   0.06  -0.03
  19   7    -0.06   0.09   0.06     0.11  -0.11  -0.10    -0.08   0.03   0.02
  20   6    -0.13  -0.16   0.04     0.22   0.18  -0.04    -0.10  -0.05   0.03
  21   8     0.07   0.06   0.03    -0.11  -0.07  -0.05     0.04   0.03   0.05
  22   6     0.00   0.05  -0.08     0.02  -0.08   0.11    -0.04   0.04  -0.06
  23   6    -0.02  -0.06  -0.02     0.04   0.10   0.04    -0.02  -0.05  -0.03
  24  16     0.05  -0.14  -0.02    -0.05   0.14   0.01     0.01  -0.01   0.01
  25   6    -0.03  -0.05   0.05     0.04   0.08  -0.08    -0.02  -0.04   0.04
  26   6     0.04  -0.02  -0.03    -0.06   0.04   0.04     0.03  -0.02  -0.02
  27   6     0.11   0.10  -0.05    -0.15  -0.15   0.06     0.06   0.08  -0.02
  28   8    -0.15  -0.02  -0.05     0.20   0.04   0.08    -0.08  -0.02  -0.03
  29   8     0.12  -0.01   0.09    -0.18   0.03  -0.11     0.09  -0.02   0.04
  30   1     0.09  -0.03  -0.01     0.06  -0.02  -0.01    -0.03   0.02  -0.00
  31   1     0.06  -0.02  -0.01     0.02  -0.00  -0.01    -0.07   0.04   0.00
  32   1     0.06  -0.02  -0.01     0.04  -0.01  -0.02    -0.02   0.02  -0.00
  33   1     0.09   0.07   0.01     0.06   0.05  -0.04    -0.00   0.06  -0.14
  34   1    -0.05  -0.02  -0.02    -0.02  -0.01  -0.01     0.07   0.00   0.03
  35   1     0.09   0.02   0.02     0.05   0.02  -0.02    -0.05   0.06  -0.09
  36   1    -0.03  -0.05  -0.01    -0.02  -0.01   0.01     0.02  -0.01   0.03
  37   1     0.01   0.01   0.00     0.03  -0.02  -0.09     0.00  -0.03  -0.03
  38   1    -0.04   0.01   0.00     0.06   0.02   0.03    -0.02  -0.04  -0.03
  39   1     0.08   0.07  -0.00    -0.09  -0.09  -0.00     0.02   0.02  -0.00
  40   1     0.01   0.00  -0.02    -0.01   0.00   0.03    -0.01  -0.00  -0.02
  41   1    -0.00  -0.00   0.01     0.01   0.00  -0.02    -0.00  -0.00   0.01
  42   1    -0.01  -0.01   0.01     0.01   0.00  -0.02    -0.00  -0.00   0.01
  43   1    -0.01  -0.02   0.03     0.02   0.03  -0.05    -0.01  -0.01   0.03
  44   1     0.04  -0.01  -0.02    -0.06   0.01   0.03     0.03  -0.01  -0.01
  45   1     0.00   0.00  -0.00    -0.00  -0.01   0.00     0.00   0.01   0.00
  46   1     0.00   0.01  -0.00    -0.01  -0.01   0.00     0.01   0.01  -0.00
  47   1     0.11  -0.04   0.08    -0.14   0.01  -0.13     0.05   0.01   0.06
                     52                     53                     54
                        a                      a                      a 
 Frequencies --   709.1425               726.0447               736.0746
 Red. masses --    10.0815                12.2720                12.3633
 Frc consts  --     0.0000                 0.0000                 0.0000
 IR Inten    --   169.7080                15.8560                 4.5167
 Raman Activ --     0.0000                 0.0000                 0.0000
 Depolar     --     0.0000                 0.0000                 0.0000
 Atom AN      X      Y      Z        X      Y      Z        X      Y      Z
   1   6    -0.01   0.00   0.00     0.12  -0.03   0.01    -0.08   0.02   0.02
   2   6    -0.00   0.00   0.00     0.07   0.06   0.09    -0.02  -0.01   0.10
   3   6     0.00  -0.00  -0.01    -0.08  -0.01  -0.39     0.01  -0.01  -0.37
   4   6     0.02   0.01   0.02     0.01  -0.02   0.44     0.05   0.01   0.35
   5   7     0.01   0.02  -0.01    -0.13   0.02  -0.17     0.04  -0.02  -0.14
   6   8    -0.00   0.02   0.00    -0.08   0.15   0.03     0.04  -0.07   0.02
   7   6     0.00  -0.03  -0.01     0.10  -0.02  -0.12     0.01   0.09  -0.05
   8   6     0.01  -0.01  -0.01     0.03  -0.04  -0.01    -0.06   0.03  -0.03
   9   6     0.02   0.00   0.02     0.11   0.05   0.06    -0.08   0.03  -0.09
  10   6    -0.02   0.03   0.00    -0.10   0.11   0.01     0.07  -0.05  -0.00
  11   6    -0.01  -0.01  -0.01    -0.00  -0.06  -0.12     0.06   0.02  -0.00
  12   6    -0.01  -0.01  -0.03    -0.08  -0.14  -0.06    -0.01  -0.03   0.07
  13  17     0.01   0.00   0.01     0.05   0.01   0.04    -0.02   0.01  -0.02
  14   6    -0.01  -0.02  -0.00    -0.11   0.05   0.24     0.02   0.10   0.27
  15   8     0.01  -0.00   0.01    -0.01  -0.05  -0.09     0.00  -0.08  -0.06
  16   7    -0.03  -0.01   0.04     0.02  -0.15  -0.02     0.10   0.13  -0.04
  17   6    -0.04  -0.01  -0.08    -0.10   0.07   0.13     0.18  -0.07  -0.18
  18   6     0.03   0.11  -0.05    -0.03   0.27  -0.02     0.05  -0.31  -0.07
  19   7    -0.05   0.04   0.03     0.10  -0.09   0.03    -0.15   0.05  -0.09
  20   6    -0.09  -0.07   0.04     0.08   0.11  -0.10    -0.04  -0.12   0.17
  21   8     0.03   0.03   0.06    -0.02  -0.05  -0.12    -0.02   0.07   0.23
[...]
  14   6    -0.00   0.00  -0.00    -0.00   0.00  -0.00    -0.00  -0.00  -0.00
  15   8     0.00  -0.00   0.00     0.00  -0.00   0.00    -0.00   0.00   0.00
  16   7    -0.00   0.00  -0.00     0.00  -0.00   0.00     0.00  -0.00   0.00
  17   6    -0.00   0.00  -0.00     0.00  -0.00   0.00     0.00  -0.00   0.00
  18   6     0.00   0.00  -0.00    -0.00  -0.00   0.00    -0.00  -0.00   0.00
  19   7     0.00  -0.00  -0.00     0.00   0.00   0.00     0.00   0.00  -0.00
  20   6    -0.00   0.00   0.00     0.00  -0.00  -0.00     0.00  -0.00   0.00
  21   8     0.00   0.00  -0.00    -0.00   0.00   0.00    -0.00   0.00   0.00
  22   6     0.00   0.00   0.00     0.00   0.00   0.01     0.00   0.00   0.00
  23   6     0.00   0.00  -0.00    -0.01   0.00   0.00    -0.00   0.00  -0.00
  24  16    -0.00   0.00   0.00     0.00   0.00   0.00     0.00  -0.00   0.00
  25   6     0.00   0.00  -0.00    -0.23   0.12   0.08     0.08   0.02   0.12
  26   6    -0.00  -0.00  -0.00     0.01  -0.01   0.02    -0.10   0.05  -0.20
  27   6     0.00  -0.00   0.00    -0.00   0.00  -0.00    -0.00  -0.00  -0.00
  28   8    -0.00   0.00  -0.00     0.00  -0.00   0.00     0.00   0.00  -0.00
  29   8    -0.00   0.00  -0.00     0.00   0.00  -0.00    -0.00  -0.00   0.00
  30   1     0.43  -0.00   0.86     0.01   0.00   0.01    -0.00   0.00  -0.01
  31   1    -0.05  -0.05   0.02     0.00   0.00  -0.00    -0.06  -0.07   0.08
  32   1    -0.01   0.08  -0.01    -0.00   0.00   0.00     0.00   0.02   0.00
  33   1     0.00   0.00   0.00     0.00  -0.00  -0.00    -0.00  -0.00  -0.00
  34   1     0.00  -0.00  -0.00    -0.00  -0.00  -0.00    -0.00   0.00  -0.00
  35   1    -0.00   0.00  -0.00     0.00  -0.00   0.00     0.00  -0.00   0.00
  36   1     0.00   0.00   0.00    -0.00  -0.00  -0.00    -0.00  -0.00  -0.00
  37   1     0.00  -0.00   0.00     0.00   0.00  -0.00    -0.00   0.00  -0.00
  38   1     0.00  -0.00   0.00    -0.00   0.00  -0.00    -0.00   0.00  -0.00
  39   1    -0.00  -0.00   0.00     0.00   0.00  -0.00     0.00   0.00  -0.00
  40   1    -0.00  -0.00  -0.00    -0.01  -0.00  -0.02    -0.00  -0.00  -0.01
  41   1    -0.01   0.01   0.01     0.75  -0.39  -0.42     0.14  -0.06  -0.05
  42   1     0.01  -0.00   0.01     0.10   0.01   0.12    -0.44   0.02  -0.37
  43   1    -0.00  -0.01  -0.00    -0.04  -0.03  -0.00     0.00  -0.02   0.01
  44   1     0.00   0.00   0.00     0.00   0.03   0.01    -0.02  -0.07  -0.04
  45   1     0.00   0.00   0.00    -0.03  -0.01  -0.03     0.46   0.11   0.38
  46   1    -0.00  -0.00   0.00     0.01   0.02  -0.04    -0.10  -0.20   0.36
  47   1    -0.00  -0.00   0.00    -0.00  -0.00   0.00     0.00   0.00  -0.00
                    124                    125                    126
                        a                      a                      a 
 Frequencies --  3036.7418              3037.3728              3037.8612
 Red. masses --     1.6305                 1.7627                 1.6765
 Frc consts  --     0.0000                 0.0000                 0.0000
 IR Inten    --     1.0046                35.6036                31.5906
 Raman Activ --     0.0000                 0.0000                 0.0000
 Depolar     --     0.0000                 0.0000                 0.0000
 Atom AN      X      Y      Z        X      Y      Z        X      Y      Z
   1   6    -0.14  -0.11   0.15    -0.02  -0.02   0.02    -0.03  -0.02   0.02
   2   6    -0.01  -0.00   0.00    -0.00  -0.00   0.00    -0.00  -0.00   0.00
   3   6     0.00  -0.00  -0.00     0.00  -0.00  -0.00     0.00  -0.00  -0.00
   4   6    -0.00  -0.00   0.00    -0.00  -0.00   0.00    -0.00  -0.00   0.00
   5   7     0.00  -0.00  -0.00     0.00  -0.00  -0.00     0.00   0.00  -0.00
   6   8     0.00   0.00   0.00     0.00   0.00   0.00     0.00   0.00   0.00
   7   6     0.00   0.00   0.00     0.00  -0.00  -0.00     0.00  -0.00   0.00
   8   6    -0.00  -0.00  -0.00    -0.00   0.00   0.00     0.00  -0.00  -0.00
   9   6     0.00  -0.00   0.00    -0.00  -0.00  -0.00     0.00  -0.00   0.00
  10   6     0.00  -0.00   0.00    -0.00   0.00   0.00     0.00  -0.00  -0.00
  11   6    -0.00  -0.00  -0.00    -0.00   0.00   0.00     0.00   0.00   0.00
  12   6    -0.00   0.00  -0.00     0.00   0.00   0.00     0.00  -0.00   0.00
  13  17     0.00  -0.00   0.00    -0.00   0.00  -0.00    -0.00  -0.00  -0.00
  14   6     0.00   0.00  -0.00     0.00   0.00  -0.00    -0.00   0.00  -0.00
  15   8     0.00  -0.00   0.00    -0.00  -0.00  -0.00     0.00  -0.00   0.00
  16   7    -0.00   0.00  -0.00    -0.00   0.00  -0.00     0.00   0.00  -0.00
  17   6    -0.00   0.00  -0.00    -0.00   0.00  -0.00     0.00  -0.00   0.00
  18   6    -0.00   0.00  -0.00     0.00   0.00  -0.00     0.00  -0.00   0.00
  19   7    -0.00   0.00   0.00    -0.00   0.00  -0.00     0.00   0.00  -0.00
  20   6     0.00  -0.00  -0.00    -0.00   0.00   0.00     0.00  -0.00   0.00
  21   8    -0.00   0.00   0.00     0.00  -0.00  -0.00    -0.00   0.00  -0.00
  22   6     0.00  -0.00  -0.00    -0.00  -0.00  -0.00     0.00   0.00   0.01
  23   6    -0.00  -0.00  -0.00     0.00   0.00  -0.01     0.01   0.00   0.01
  24  16    -0.00  -0.00   0.00     0.00  -0.00   0.00    -0.00  -0.00   0.00
  25   6     0.01   0.00   0.01    -0.09  -0.03  -0.10     0.10   0.02   0.11
  26   6    -0.05  -0.03  -0.01     0.06   0.14  -0.16     0.15   0.08   0.07
  27   6    -0.00   0.00  -0.00     0.00  -0.00   0.00     0.00  -0.00   0.00
  28   8     0.00  -0.00   0.00    -0.00   0.00  -0.00    -0.00   0.00  -0.00
  29   8     0.00  -0.00  -0.00    -0.00  -0.00   0.00    -0.00   0.00  -0.00
  30   1     0.02  -0.02   0.10     0.00  -0.00   0.01     0.01  -0.00   0.02
  31   1     0.49   0.52  -0.59     0.07   0.08  -0.09     0.09   0.09  -0.11
  32   1    -0.02  -0.11  -0.02    -0.00  -0.02  -0.00    -0.00  -0.02  -0.00
  33   1     0.00   0.00   0.00    -0.00  -0.00  -0.00     0.00   0.00   0.00
  34   1    -0.00  -0.00  -0.00     0.00   0.00   0.00    -0.00  -0.00  -0.00
  35   1    -0.00   0.00  -0.00     0.00  -0.00  -0.00    -0.00   0.00   0.00
  36   1     0.00   0.00   0.00     0.00  -0.00  -0.00    -0.00  -0.00  -0.00
  37   1     0.00  -0.00   0.00     0.00  -0.00   0.00     0.00  -0.00   0.00
  38   1     0.00  -0.00   0.00     0.00  -0.00   0.00    -0.00   0.00  -0.00
  39   1    -0.00  -0.00   0.00    -0.00  -0.00   0.00     0.00   0.00  -0.00
  40   1     0.00   0.00   0.00     0.00   0.00   0.01    -0.01  -0.00  -0.02
  41   1     0.00  -0.00  -0.00    -0.05   0.01   0.01     0.08  -0.03  -0.02
  42   1    -0.03   0.00  -0.03     0.37  -0.02   0.32    -0.43   0.02  -0.37
  43   1    -0.00  -0.01  -0.00     0.01   0.09   0.02    -0.00  -0.07  -0.01
  44   1    -0.00   0.02   0.00    -0.01  -0.14  -0.05     0.01  -0.09  -0.01
  45   1     0.17   0.03   0.14    -0.06   0.01  -0.08    -0.53  -0.11  -0.46
  46   1     0.01   0.05  -0.09    -0.15  -0.36   0.69    -0.03  -0.10   0.22
  47   1     0.00  -0.00  -0.00     0.00   0.00  -0.00    -0.00  -0.00   0.00
                    127                    128                    129
                        a                      a                      a 
 Frequencies --  3052.0296              3056.8676              3061.4541
 Red. masses --     1.6394                 1.6070                 1.7506
 Frc consts  --     0.0000                 0.0000                 0.0000
 IR Inten    --     5.5931                14.1488                 0.6295
 Raman Activ --     0.0000                 0.0000                 0.0000
 Depolar     --     0.0000                 0.0000                 0.0000
 Atom AN      X      Y      Z        X      Y      Z        X      Y      Z
   1   6    -0.00  -0.01  -0.00     0.00   0.01   0.00     0.02   0.25   0.05
   2   6    -0.00  -0.00  -0.00     0.00   0.00   0.00    -0.00   0.01   0.00
   3   6     0.00  -0.00  -0.00     0.00   0.00  -0.00     0.00  -0.00   0.00
   4   6    -0.00  -0.00   0.00    -0.00   0.00  -0.00     0.00   0.00  -0.00
   5   7     0.00   0.00   0.00     0.00   0.00  -0.00     0.00  -0.00   0.00
   6   8    -0.00   0.00   0.00     0.00   0.00  -0.00    -0.00  -0.00  -0.00
   7   6     0.00  -0.00   0.00    -0.00   0.00   0.00    -0.00  -0.00   0.00
   8   6    -0.00  -0.00  -0.00    -0.00   0.00   0.00     0.00  -0.00  -0.00
   9   6    -0.00  -0.00  -0.00     0.00   0.00   0.00     0.00   0.00   0.00
  10   6    -0.00   0.00  -0.00     0.00  -0.00  -0.00     0.00  -0.00   0.00
  11   6     0.00   0.00   0.00    -0.00  -0.00  -0.00    -0.00  -0.00  -0.00
  12   6     0.00  -0.00   0.00    -0.00   0.00  -0.00     0.00   0.00   0.00
  13  17    -0.00  -0.00  -0.00     0.00   0.00   0.00     0.00  -0.00  -0.00
  14   6    -0.00   0.00  -0.00    -0.00  -0.00   0.00     0.00   0.00   0.00
  15   8     0.00  -0.00   0.00     0.00   0.00  -0.00    -0.00   0.00  -0.00
  16   7     0.00  -0.00   0.00    -0.00  -0.00  -0.00    -0.00   0.00  -0.00
  17   6     0.00  -0.00   0.00    -0.00   0.00  -0.00    -0.00   0.00  -0.00
  18   6    -0.00  -0.00   0.00     0.00   0.00  -0.00     0.00   0.00  -0.00
  19   7    -0.00   0.00  -0.00    -0.00  -0.00   0.00     0.00  -0.00  -0.00
  20   6    -0.00  -0.00  -0.00     0.00   0.00  -0.00    -0.00  -0.00   0.00
  21   8     0.00   0.00   0.00    -0.00   0.00   0.00     0.00   0.00  -0.00
  22   6    -0.00  -0.00  -0.00     0.00  -0.00   0.00    -0.00   0.00   0.00
  23   6    -0.00  -0.01   0.00    -0.00   0.01   0.00    -0.00  -0.00  -0.00
  24  16     0.00   0.00   0.00    -0.00   0.00  -0.00     0.00   0.00   0.00
  25   6    -0.05  -0.22  -0.05     0.01   0.07   0.01    -0.00  -0.01  -0.00
  26   6     0.00   0.06   0.04     0.00   0.21   0.07     0.00  -0.00  -0.00
  27   6     0.00   0.00  -0.00     0.00   0.00   0.00     0.00  -0.00   0.00
  28   8     0.00  -0.00   0.00    -0.00  -0.00  -0.00     0.00  -0.00  -0.00
  29   8     0.00   0.00  -0.00    -0.00  -0.00   0.00     0.00   0.00  -0.00
  30   1     0.00  -0.00   0.01     0.00   0.00  -0.00     0.04   0.03   0.07
  31   1     0.01   0.01  -0.01    -0.01  -0.01   0.01    -0.05  -0.03   0.08
  32   1     0.00   0.04   0.01    -0.00  -0.03  -0.01    -0.04  -0.90  -0.32
  33   1     0.00   0.00   0.00    -0.00  -0.00  -0.00    -0.00   0.00   0.00
  34   1     0.00   0.00   0.00    -0.00  -0.00  -0.00    -0.00  -0.00  -0.00
  35   1     0.00  -0.00  -0.00    -0.00   0.00   0.00     0.00  -0.00  -0.00
  36   1    -0.00  -0.00  -0.00     0.00   0.00   0.00     0.00   0.00   0.00
  37   1     0.00   0.00  -0.00    -0.00  -0.00   0.00     0.00  -0.00   0.00
  38   1    -0.00   0.00  -0.00     0.00  -0.00   0.00     0.00  -0.00   0.00
  39   1     0.00   0.00  -0.00    -0.00  -0.00   0.00    -0.00  -0.00   0.00
  40   1     0.00   0.00   0.01    -0.00  -0.00  -0.01    -0.00  -0.00  -0.00
  41   1     0.05  -0.05  -0.04    -0.00   0.01   0.00     0.00  -0.00  -0.00
  42   1    -0.08  -0.02  -0.07     0.04   0.01   0.04    -0.01  -0.00  -0.01
  43   1     0.20   0.85   0.27    -0.06  -0.26  -0.08     0.01   0.04   0.01
  44   1    -0.03  -0.27  -0.04    -0.09  -0.89  -0.15     0.00   0.01   0.00
  45   1    -0.01   0.00  -0.01     0.04   0.04   0.04    -0.00  -0.00  -0.00
  46   1     0.02   0.06  -0.09     0.04   0.11  -0.15    -0.00  -0.00   0.00
  47   1    -0.00  -0.00   0.00     0.00   0.00  -0.00    -0.00  -0.00   0.00
                    130                    131                    132
                        a                      a                      a 
 Frequencies --  3099.8922              3104.5448              3110.9618
 Red. masses --     1.7645                 1.8107                 1.8692
 Frc consts  --     0.0000                 0.0000                 0.0000
 IR Inten    --     1.3479                12.4299                41.5439
 Raman Activ --     0.0000                 0.0000                 0.0000
 Depolar     --     0.0000                 0.0000                 0.0000
 Atom AN      X      Y      Z        X      Y      Z        X      Y      Z
   1   6     0.00  -0.00  -0.00    -0.00   0.00   0.00    -0.00   0.00   0.00
   2   6     0.00   0.00  -0.00     0.00  -0.00  -0.00    -0.00   0.00   0.00
   3   6    -0.00  -0.00   0.00    -0.00  -0.00   0.00     0.00   0.00  -0.00
   4   6    -0.00  -0.00   0.00    -0.00   0.00   0.00     0.00   0.00   0.00
   5   7    -0.00   0.00   0.00    -0.00   0.00   0.00    -0.00  -0.00  -0.00
   6   8     0.00  -0.00  -0.00     0.00   0.00  -0.00    -0.00  -0.00   0.00
   7   6     0.00  -0.00  -0.00     0.00  -0.00  -0.00    -0.00   0.00  -0.00
   8   6    -0.00  -0.04  -0.03    -0.01  -0.11  -0.10     0.01   0.13   0.11
   9   6     0.11   0.01   0.09     0.12   0.01   0.09     0.04   0.00   0.03
  10   6    -0.13   0.13   0.01     0.05  -0.05  -0.00    -0.09   0.08   0.00
  11   6    -0.01  -0.08  -0.07     0.01   0.11   0.10     0.01   0.13   0.12
  12   6    -0.00  -0.00  -0.00     0.00   0.00   0.00     0.01  -0.00   0.00
  13  17     0.00   0.00   0.00    -0.00  -0.00  -0.00    -0.00   0.00  -0.00
  14   6    -0.00  -0.00  -0.00     0.00   0.00   0.00     0.00  -0.00   0.00
  15   8     0.00   0.00   0.00    -0.00   0.00  -0.00    -0.00   0.00  -0.00
  16   7     0.00   0.00   0.00    -0.00  -0.00  -0.00     0.00  -0.00  -0.00
  17   6     0.00  -0.00   0.00    -0.00   0.00  -0.00    -0.00  -0.00   0.00
  18   6    -0.00   0.00  -0.00     0.00  -0.00  -0.00     0.00  -0.00   0.00
  19   7    -0.00  -0.00   0.00     0.00   0.00  -0.00     0.00  -0.00  -0.00
  20   6     0.00   0.00  -0.00    -0.00  -0.00   0.00    -0.00   0.00  -0.00
  21   8    -0.00  -0.00   0.00     0.00   0.00  -0.00     0.00   0.00   0.00
  22   6    -0.00   0.00   0.00    -0.00  -0.00  -0.00    -0.00  -0.00  -0.00
  23   6     0.00   0.00   0.00    -0.00   0.00   0.00    -0.00  -0.00  -0.00
  24  16    -0.00  -0.00  -0.00    -0.00   0.00  -0.00     0.00   0.00   0.00
  25   6    -0.00  -0.00   0.00     0.00   0.00  -0.00     0.00  -0.00  -0.00
  26   6     0.00  -0.00  -0.00    -0.00   0.00   0.00    -0.00   0.00   0.00
  27   6     0.00   0.00  -0.00    -0.00  -0.00   0.00    -0.00   0.00   0.00
  28   8    -0.00  -0.00   0.00    -0.00   0.00  -0.00    -0.00  -0.00  -0.00
  29   8    -0.00  -0.00   0.00     0.00   0.00  -0.00     0.00   0.00  -0.00
  30   1    -0.00  -0.00  -0.00     0.00   0.00   0.00     0.00   0.00   0.00
  31   1    -0.00  -0.00   0.00     0.00   0.00  -0.00     0.00   0.00  -0.00
  32   1     0.00   0.00   0.00     0.00  -0.00  -0.00    -0.00  -0.00  -0.00
  33   1     0.01   0.15   0.13     0.02   0.41   0.36    -0.02  -0.45  -0.39
  34   1    -0.40  -0.04  -0.32    -0.42  -0.04  -0.33    -0.14  -0.01  -0.11
  35   1     0.49  -0.47  -0.02    -0.18   0.17   0.01     0.29  -0.28  -0.01
  36   1     0.02   0.30   0.27    -0.03  -0.39  -0.35    -0.03  -0.46  -0.41
  37   1     0.00  -0.00  -0.00    -0.00   0.00  -0.00    -0.00   0.00  -0.00
  38   1    -0.00   0.00  -0.00     0.00  -0.00   0.00    -0.00   0.00   0.00
  39   1    -0.00  -0.00   0.00     0.00  -0.00  -0.00     0.00   0.00  -0.00
  40   1    -0.00  -0.00  -0.00     0.00   0.00   0.00     0.00   0.00   0.00
  41   1     0.00  -0.00  -0.00    -0.00   0.00   0.00    -0.00   0.00   0.00
  42   1    -0.00   0.00  -0.00     0.00  -0.00   0.00     0.00  -0.00   0.00
  43   1     0.00   0.00   0.00    -0.00  -0.00  -0.00    -0.00  -0.00  -0.00
  44   1     0.00   0.00   0.00    -0.00  -0.00  -0.00    -0.00  -0.00  -0.00
  45   1    -0.00  -0.00  -0.00     0.00   0.00   0.00     0.00   0.00   0.00
  46   1    -0.00  -0.00   0.00     0.00   0.00  -0.00     0.00   0.00  -0.00
  47   1     0.00   0.00  -0.00    -0.00  -0.00   0.00    -0.00  -0.00   0.00
                    133                    134                    135
                        a                      a                      a 
 Frequencies --  3116.9185              3304.0328              3434.9130
 Red. masses --     1.9229                 1.8529                 1.8479
 Frc consts  --     0.0000                 0.0000                 0.0000
 IR Inten    --    30.6724               241.5973                71.0407
 Raman Activ --     0.0000                 0.0000                 0.0000
 Depolar     --     0.0000                 0.0000                 0.0000
 Atom AN      X      Y      Z        X      Y      Z        X      Y      Z
   1   6     0.00  -0.00  -0.00    -0.00  -0.00   0.00    -0.00   0.00  -0.00
   2   6    -0.00   0.00   0.00    -0.00  -0.00   0.00    -0.00   0.00  -0.00
   3   6     0.00  -0.00  -0.00     0.00   0.00  -0.00    -0.00  -0.00   0.00
   4   6     0.00   0.00   0.00    -0.00  -0.00   0.00     0.00   0.00   0.00
   5   7    -0.00   0.00  -0.00     0.00   0.00  -0.00    -0.00  -0.00  -0.00
   6   8     0.00  -0.00   0.00     0.00   0.00  -0.00    -0.00  -0.00   0.00
   7   6    -0.00   0.00   0.00     0.00   0.00   0.00    -0.00  -0.00  -0.00
   8   6     0.00   0.11   0.09    -0.00  -0.00  -0.00     0.00   0.00   0.00
   9   6     0.14   0.01   0.11    -0.00  -0.00  -0.00     0.00   0.00   0.00
  10   6     0.11  -0.10  -0.01    -0.00   0.00   0.00     0.00  -0.00   0.00
  11   6    -0.01  -0.07  -0.07     0.00  -0.00   0.00     0.00  -0.00  -0.00
  12   6    -0.00  -0.00  -0.00    -0.00  -0.00  -0.00     0.00  -0.00   0.00
  13  17     0.00   0.00   0.00     0.00  -0.00  -0.00    -0.00   0.00  -0.00
  14   6    -0.00  -0.00   0.00    -0.00   0.00  -0.00     0.00  -0.01   0.00
  15   8     0.00   0.00  -0.00     0.00  -0.00   0.00    -0.00   0.00  -0.00
  16   7     0.00   0.00  -0.00    -0.00   0.00  -0.00     0.11  -0.21   0.10
  17   6    -0.00   0.00   0.00    -0.00  -0.00   0.00     0.00  -0.00   0.00
  18   6     0.00  -0.00   0.00    -0.00  -0.00   0.00     0.00  -0.00   0.00
  19   7     0.00   0.00  -0.00    -0.00   0.00   0.00    -0.00  -0.00  -0.00
  20   6    -0.00  -0.00  -0.00     0.00  -0.00  -0.00    -0.00   0.00  -0.00
  21   8     0.00  -0.00   0.00    -0.00   0.00   0.00     0.00   0.00   0.00
  22   6     0.00  -0.00   0.00    -0.00  -0.00  -0.00    -0.00  -0.00  -0.00
  23   6     0.00  -0.00   0.00     0.00   0.00  -0.00     0.00   0.00   0.00
  24  16     0.00   0.00  -0.00     0.00  -0.00   0.00    -0.00   0.00   0.00
  25   6    -0.00  -0.00   0.00    -0.00  -0.00  -0.00     0.00  -0.00  -0.00
  26   6     0.00  -0.00  -0.00    -0.00   0.00  -0.00     0.00  -0.00   0.00
  27   6     0.00  -0.00   0.00     0.02   0.00   0.00    -0.00  -0.00   0.00
  28   8     0.00   0.00   0.00    -0.00   0.00  -0.00    -0.00   0.00  -0.00
  29   8     0.00   0.00  -0.00     0.15   0.12  -0.14     0.00   0.00  -0.00
  30   1    -0.00   0.00  -0.00    -0.00   0.00  -0.00     0.00  -0.00   0.01
  31   1    -0.00  -0.00   0.00     0.00  -0.00   0.00     0.00   0.00  -0.01
  32   1    -0.00   0.00   0.00     0.00   0.00   0.00     0.00  -0.00  -0.00
  33   1    -0.02  -0.37  -0.32     0.00   0.00   0.00    -0.00  -0.00  -0.00
  34   1    -0.46  -0.04  -0.37     0.00   0.00   0.00    -0.00   0.00  -0.00
  35   1    -0.35   0.33   0.02     0.00  -0.00   0.00    -0.00   0.00   0.00
  36   1     0.02   0.24   0.22     0.00  -0.00   0.00    -0.00   0.00   0.00
  37   1     0.00  -0.00   0.00     0.00  -0.00   0.00    -0.43   0.78  -0.37
  38   1     0.00  -0.00   0.00     0.00  -0.00   0.00    -0.00   0.01  -0.00
  39   1     0.00   0.00  -0.00     0.00   0.00  -0.00     0.00   0.00  -0.00
  40   1    -0.00  -0.00  -0.00     0.00   0.00   0.00     0.00   0.00   0.00
  41   1     0.00  -0.00  -0.00    -0.00   0.00   0.00    -0.00   0.00   0.00
  42   1    -0.00  -0.00  -0.00     0.00  -0.00   0.00     0.00  -0.00   0.00
  43   1     0.00   0.00   0.00    -0.00  -0.00  -0.00     0.00  -0.00  -0.00
  44   1     0.00   0.00   0.00    -0.00  -0.00  -0.00     0.00   0.00  -0.00
  45   1    -0.00  -0.00  -0.00     0.00   0.00   0.00     0.00  -0.00  -0.00
  46   1    -0.00  -0.00   0.00    -0.00  -0.00   0.00     0.00  -0.00   0.00
  47   1    -0.00  -0.00   0.00    -0.64  -0.49   0.54    -0.00  -0.00   0.00
