      -----------------------------------------------------------      
     |                   =====================                   |     
     |                           x T B                           |     
     |                   =====================                   |     
     |                         S. Grimme                         |     
     |          Mulliken Center for Theoretical Chemistry        |     
     |                    University of Bonn                     |     
      -----------------------------------------------------------      

   * xtb version 6.6.0 (conda-forge) compiled by 'runner@Mac-1676020848589.local' on 2023-02-10

   xtb is free software: you can redistribute it and/or modify it under
   the terms of the GNU Lesser General Public License as published by
   the Free Software Foundation, either version 3 of the License, or
   (at your option) any later version.
   
   xtb is distributed in the hope that it will be useful,
   but WITHOUT ANY WARRANTY; without even the implied warranty of
   MERCHANTABILITY or FITNESS FOR A PARTICULAR PURPOSE.  See the
   GNU Lesser General Public License for more details.
   
   Cite this work as:
   * C. Bannwarth, E. Caldeweyher, S. Ehlert, A. Hansen, P. Pracht,
     J. Seibert, S. Spicher, S. Grimme, WIREs Comput. Mol. Sci., 2020, 11,
     e01493. DOI: 10.1002/wcms.1493
   
   for GFN2-xTB:
   * C. Bannwarth, S. Ehlert and S. Grimme., J. Chem. Theory Comput., 2019,
     15, 1652-1671. DOI: 10.1021/acs.jctc.8b01176
   for GFN1-xTB:
   * S. Grimme, C. Bannwarth, P. Shushkov, J. Chem. Theory Comput., 2017,
     13, 1989-2009. DOI: 10.1021/acs.jctc.7b00118
   for GFN0-xTB:
   * P. Pracht, E. Caldeweyher, S. Ehlert, S. Grimme, ChemRxiv, 2019, preprint.
     DOI: 10.26434/chemrxiv.8326202.v1
   for GFN-FF:
   * S. Spicher and S. Grimme, Angew. Chem. Int. Ed., 2020, 59, 15665-15673.
     DOI: 10.1002/anie.202004239
   
   for ALPB and GBSA implicit solvation:
   * S. Ehlert, M. Stahn, S. Spicher, S. Grimme, J. Chem. Theory Comput.,
     2021, 17, 4250-4261. DOI: 10.1021/acs.jctc.1c00471
   
   for DFT-D4:
   * E. Caldeweyher, C. Bannwarth and S. Grimme, J. Chem. Phys., 2017,
     147, 034112. DOI: 10.1063/1.4993215
   * E. Caldeweyher, S. Ehlert, A. Hansen, H. Neugebauer, S. Spicher,
     C. Bannwarth and S. Grimme, J. Chem. Phys., 2019, 150, 154122.
     DOI: 10.1063/1.5090222
   * E. Caldeweyher, J.-M. Mewes, S. Ehlert and S. Grimme, Phys. Chem. Chem. Phys.
     2020, 22, 8499-8512. DOI: 10.1039/D0CP00502A
   
   for sTDA-xTB:
   * S. Grimme and C. Bannwarth, J. Chem. Phys., 2016, 145, 054103.
     DOI: 10.1063/1.4959605
   
   in the mass-spec context:
   * V. Asgeirsson, C. Bauer and S. Grimme, Chem. Sci., 2017, 8, 4879.
     DOI: 10.1039/c7sc00601b
   * J. Koopman and S. Grimme, ACS Omega 2019, 4, 12, 15120-15133.
     DOI: 10.1021/acsomega.9b02011
   
   for metadynamics refer to:
   * S. Grimme, J. Chem. Theory Comput., 2019, 155, 2847-2862
     DOI: 10.1021/acs.jctc.9b00143
   
   for SPH calculations refer to:
   * S. Spicher and S. Grimme, J. Chem. Theory Comput., 2021, 17, 1701-1714
     DOI: 10.1021/acs.jctc.0c01306
   
   with help from (in alphabetical order)
   P. Atkinson, C. Bannwarth, F. Bohle, G. Brandenburg, E. Caldeweyher
   M. Checinski, S. Dohm, S. Ehlert, S. Ehrlich, I. Gerasimov, C. Hölzer
   A. Katbashev, J. Koopman, C. Lavigne, S. Lehtola, F. März, M. Müller,
   F. Musil, H. Neugebauer, J. Pisarek, C. Plett, P. Pracht, F. Pultar,
   J. Seibert, P. Shushkov, S. Spicher, M. Stahn, M. Steiner, T. Strunk,
   J. Stückrath, T. Rose, and J. Unsleber
   
 * started run on 2024/09/04 at 15:58:43.672     

           -------------------------------------------------
          |                Calculation Setup                |
           -------------------------------------------------

          program call               : xtb input_molecule.xyz --gfn2 --chrg 0 --opt
          coordinate file            : input_molecule.xyz
          omp threads                :                     8

   ID    Z sym.   atoms
    1    6 C      1-4
    2    1 H      5-14

           -------------------------------------------------
          |                 G F N 2 - x T B                 |
           -------------------------------------------------

        Reference                      10.1021/acs.jctc.8b01176
      * Hamiltonian:
        H0-scaling (s, p, d)           1.850000    2.230000    2.230000
        zeta-weighting                 0.500000
      * Dispersion:
        s8                             2.700000
        a1                             0.520000
        a2                             5.000000
        s9                             5.000000
      * Repulsion:
        kExp                           1.500000    1.000000
        rExp                           1.000000
      * Coulomb:
        alpha                          2.000000
        third order                    shell-resolved
        anisotropic                    true
        a3                             3.000000
        a5                             4.000000
        cn-shift                       1.200000
        cn-exp                         4.000000
        max-rad                        5.000000

q/qsh data taken from xtbrestart
CAMM data taken from xtbrestart

          ...................................................
          :                      SETUP                      :
          :.................................................:
          :  # basis functions                  26          :
          :  # atomic orbitals                  26          :
          :  # shells                           18          :
          :  # electrons                        26          :
          :  max. iterations                   250          :
          :  Hamiltonian                  GFN2-xTB          :
          :  restarted?                       true          :
          :  GBSA solvation                  false          :
          :  PC potential                    false          :
          :  electronic temp.          300.0000000     K    :
          :  accuracy                    1.0000000          :
          :  -> integral cutoff          0.2500000E+02      :
          :  -> integral neglect         0.1000000E-07      :
          :  -> SCF convergence          0.1000000E-05 Eh   :
          :  -> wf. convergence          0.1000000E-03 e    :
          :  Broyden damping             0.4000000          :
          ...................................................

 iter      E             dE          RMSdq      gap      omega  full diag
   1    -13.8440015 -0.138440E+02  0.269E+00   13.82       0.0  T
   2    -13.8456840 -0.168254E-02  0.159E+00   13.75       1.0  T
   3    -13.8461798 -0.495779E-03  0.160E-01   13.73       1.0  T
   4    -13.8461854 -0.554756E-05  0.928E-02   13.74       1.0  T
   5    -13.8461855 -0.983901E-07  0.125E-02   13.74       2.1  T
   6    -13.8461860 -0.521262E-06  0.312E-03   13.74       8.6  T
   7    -13.8461860 -0.756727E-08  0.397E-04   13.74      67.4  T
   8    -13.8461860 -0.186452E-09  0.182E-04   13.74     147.1  T

   *** convergence criteria satisfied after 8 iterations ***

         #    Occupation            Energy/Eh            Energy/eV
      -------------------------------------------------------------
         1        2.0000           -0.6163226             -16.7710
       ...           ...                  ...                  ...
         7        2.0000           -0.4859011             -13.2220
         8        2.0000           -0.4783749             -13.0172
         9        2.0000           -0.4530757             -12.3288
        10        2.0000           -0.4387569             -11.9392
        11        2.0000           -0.4357304             -11.8568
        12        2.0000           -0.4248289             -11.5602
        13        2.0000           -0.4205494             -11.4437 (HOMO)
        14                          0.0843099               2.2942 (LUMO)
        15                          0.1020436               2.7767
        16                          0.1103793               3.0036
        17                          0.1264840               3.4418
        18                          0.1269963               3.4557
       ...                                ...                  ...
        26                          0.2828401               7.6965
      -------------------------------------------------------------
                  HL-Gap            0.5048594 Eh           13.7379 eV
             Fermi-level           -0.1681198 Eh           -4.5748 eV

 SCC (total)                   0 d,  0 h,  0 min,  0.025 sec
 SCC setup                      ...        0 min,  0.007 sec ( 27.983%)
 Dispersion                     ...        0 min,  0.001 sec (  4.936%)
 classical contributions        ...        0 min,  0.001 sec (  2.413%)
 integral evaluation            ...        0 min,  0.001 sec (  5.612%)
 iterations                     ...        0 min,  0.013 sec ( 51.642%)
 molecular gradient             ...        0 min,  0.001 sec (  4.920%)
 printout                       ...        0 min,  0.001 sec (  2.429%)

         :::::::::::::::::::::::::::::::::::::::::::::::::::::
         ::                     SUMMARY                     ::
         :::::::::::::::::::::::::::::::::::::::::::::::::::::
         :: total energy             -13.662020420344 Eh    ::
         :: gradient norm              0.044363755768 Eh/a0 ::
         :: HOMO-LUMO gap             13.737922672921 eV    ::
         ::.................................................::
         :: SCC energy               -13.846185994129 Eh    ::
         :: -> isotropic ES            0.002642993122 Eh    ::
         :: -> anisotropic ES          0.005796649389 Eh    ::
         :: -> anisotropic XC          0.010362996656 Eh    ::
         :: -> dispersion             -0.006056586187 Eh    ::
         :: repulsion energy           0.184161195924 Eh    ::
         :: add. restraining           0.000000000000 Eh    ::
         :: total charge              -0.000000000000 e     ::
         :::::::::::::::::::::::::::::::::::::::::::::::::::::

      ----------------------------------------------------------- 
     |                   =====================                   |
     |                        A N C O P T                        |
     |                   =====================                   |
     |               Approximate Normal Coordinate               |
     |                Rational Function Optimizer                |
      ----------------------------------------------------------- 

          ...................................................
          :                      SETUP                      :
          :.................................................:
          :   optimization level            normal          :
          :   max. optcycles                   200          :
          :   ANC micro-cycles                  20          :
          :   degrees of freedom                36          :
          :.................................................:
          :   RF solver                   davidson          :
          :   write xtbopt.log                true          :
          :   linear?                        false          :
          :   energy convergence         0.5000000E-05 Eh   :
          :   grad. convergence          0.1000000E-02 Eh/α :
          :   maxmium RF displ.          1.0000000          :
          :   Hlow (freq-cutoff)         0.1000000E-01      :
          :   Hmax (freq-cutoff)         5.0000000          :
          :   S6 in model hess.         20.0000000          :
          ...................................................

generating ANC from model Hessian ...
Using Lindh-Hessian (1995)
 Shifting diagonal of input Hessian by    6.2447115768958809E-003
 Lowest  eigenvalues of input Hessian
    0.000000    0.000000    0.000000    0.000000    0.000000    0.000000
    0.010000    0.013033    0.013406    0.016872    0.021888    0.041210
    0.043579    0.051862    0.054025    0.054272    0.056254    0.063395
 Highest eigenvalues
    1.047496    1.075299    1.125041    1.139351    1.161489    1.231176


........................................................................
.............................. CYCLE    1 ..............................
........................................................................

 iter      E             dE          RMSdq      gap      omega  full diag
   1    -13.8461860 -0.138462E+02  0.303E-05   13.74       0.0  T
   2    -13.8461860 -0.323119E-11  0.152E-05   13.74    1763.6  T
   3    -13.8461860 -0.147438E-12  0.760E-06   13.74    3518.2  T
     SCC iter.                  ...        0 min,  0.004 sec
     gradient                   ...        0 min,  0.001 sec
 * total energy  :   -13.6620204 Eh     change       -0.2016343E-10 Eh
   gradient norm :     0.0443632 Eh/α   predicted     0.0000000E+00 (-100.00%)
   displ. norm   :     0.1536202 α      lambda       -0.5332691E-02
   maximum displ.:     0.1162290 α      in ANC's #24, #8, #5, ...

........................................................................
.............................. CYCLE    2 ..............................
........................................................................

 iter      E             dE          RMSdq      gap      omega  full diag
   1    -13.8708818 -0.138709E+02  0.236E-01   13.66       0.0  T
   2    -13.8709344 -0.525812E-04  0.135E-01   13.68       1.0  T
   3    -13.8709368 -0.235870E-05  0.285E-02   13.67       1.0  T
   4    -13.8709369 -0.113377E-06  0.684E-03   13.67       3.9  T
   5    -13.8709369 -0.964512E-09  0.228E-04   13.67     117.1  T
   6    -13.8709369 -0.259810E-10  0.110E-04   13.67     242.2  T
     SCC iter.                  ...        0 min,  0.002 sec
     gradient                   ...        0 min,  0.001 sec
 * total energy  :   -13.6650007 Eh     change       -0.2980269E-02 Eh
   gradient norm :     0.0108115 Eh/α   predicted    -0.2729270E-02 (  -8.42%)
   displ. norm   :     0.0523761 α      lambda       -0.2639304E-03
   maximum displ.:     0.0380097 α      in ANC's #5, #8, #24, ...

........................................................................
.............................. CYCLE    3 ..............................
........................................................................

 iter      E             dE          RMSdq      gap      omega  full diag
   1    -13.8765727 -0.138766E+02  0.641E-02   13.84       0.0  T
   2    -13.8765762 -0.344247E-05  0.350E-02   13.85       1.0  T
   3    -13.8765762 -0.618971E-07  0.824E-03   13.85       3.2  T
   4    -13.8765762 -0.587901E-08  0.108E-03   13.85      24.8  T
   5    -13.8765762 -0.171330E-10  0.835E-05   13.85     320.2  T
   6    -13.8765762 -0.445297E-10  0.257E-05   13.85    1040.0  T
     SCC iter.                  ...        0 min,  0.003 sec
     gradient                   ...        0 min,  0.001 sec
 * total energy  :   -13.6651210 Eh     change       -0.1202857E-03 Eh
   gradient norm :     0.0017444 Eh/α   predicted    -0.1323265E-03 (  10.01%)
   displ. norm   :     0.0140984 α      lambda       -0.1141252E-04
   maximum displ.:     0.0091523 α      in ANC's #14, #22, #11, ...

........................................................................
.............................. CYCLE    4 ..............................
........................................................................

 iter      E             dE          RMSdq      gap      omega  full diag
   1    -13.8759696 -0.138760E+02  0.240E-02   13.79       0.0  T
   2    -13.8759697 -0.986773E-07  0.141E-02   13.79       1.9  T
   3    -13.8759697 -0.150311E-08  0.126E-03   13.79      21.2  T
   4    -13.8759697 -0.915887E-08  0.338E-04   13.79      79.1  T
   5    -13.8759697 -0.171188E-10  0.397E-05   13.79     674.0  T
     SCC iter.                  ...        0 min,  0.003 sec
     gradient                   ...        0 min,  0.001 sec
 * total energy  :   -13.6651265 Eh     change       -0.5557650E-05 Eh
   gradient norm :     0.0007502 Eh/α   predicted    -0.5707014E-05 (   2.69%)
   displ. norm   :     0.0049971 α      lambda       -0.1835871E-05
   maximum displ.:     0.0035860 α      in ANC's #14, #22, #5, ...

........................................................................
.............................. CYCLE    5 ..............................
........................................................................

 iter      E             dE          RMSdq      gap      omega  full diag
   1    -13.8759614 -0.138760E+02  0.905E-03   13.80       0.0  T
   2    -13.8759614 -0.900440E-08  0.533E-03   13.80       5.0  T
   3    -13.8759614 -0.107915E-09  0.338E-04   13.80      79.2  T
   4    -13.8759614 -0.759602E-09  0.712E-05   13.80     375.3  T
     SCC iter.                  ...        0 min,  0.003 sec
     gradient                   ...        0 min,  0.001 sec
 * total energy  :   -13.6651277 Eh     change       -0.1155176E-05 Eh
   gradient norm :     0.0001962 Eh/α   predicted    -0.9185005E-06 ( -20.49%)
   displ. norm   :     0.0014463 α      lambda       -0.1141831E-06
   maximum displ.:     0.0009035 α      in ANC's #8, #5, #24, ...

   *** GEOMETRY OPTIMIZATION CONVERGED AFTER 5 ITERATIONS ***

------------------------------------------------------------------------
 total energy gain   :        -0.0031073 Eh       -1.9498 kcal/mol
 total RMSD          :         0.0410074 a0        0.0217 Å
 total power (kW/mol):        -1.6316260 (step) -209.2530 (real)
------------------------------------------------------------------------

 ANCopt (total)                0 d,  0 h,  0 min,  0.039 sec
 optimizer setup                ...        0 min,  0.001 sec (  3.782%)
 model hessian                  ...        0 min,  0.005 sec ( 12.351%)
 ANC generation                 ...        0 min,  0.002 sec (  4.226%)
 coordinate transformation      ...        0 min,  0.000 sec (  0.043%)
 single point calculation       ...        0 min,  0.025 sec ( 63.654%)
 optimization log               ...        0 min,  0.003 sec (  8.270%)
 hessian update                 ...        0 min,  0.000 sec (  0.506%)
 rational function              ...        0 min,  0.002 sec (  5.794%)

================
 final structure:
================
14
 xtb: 6.6.0 (conda-forge)
C           -1.87583146891081       -0.13660315618917       -0.20862164050052
C           -0.62977993813552       -0.18478938542263        0.66719198918524
C            0.62978094395626        0.18478569297402       -0.11276490041882
C            1.87583082121984        0.13660577582691        0.76305115918919
H           -2.75988077682468       -0.40290625057616        0.36629437126732
H           -2.01855604164658        0.86284754534408       -0.61438478243887
H           -1.78481755394976       -0.83238203353131       -1.04020093378732
H           -0.74860282163294        0.50532155129881        1.50589958143405
H           -0.51488088141321       -1.18982660690299        1.08010992429903
H            0.74860692996480       -0.50532799176275       -0.95146996251808
H            0.51488025988222        1.18982127761458       -0.52568645444502
H            1.78481061459213        0.83238309136574        1.59463105388611
H            2.01856027701984       -0.86284451381099        1.16881327850626
H            2.75987963587841        0.40291500377186        0.18813731634143

 Bond Distances (Angstroems)
 ---------------------------
C1-C2=1.5238         C1-H5=1.0877         C1-H6=1.0881         C1-H7=1.0881         C2-C1=1.5238         C2-C3=1.5269         
C2-H8=1.0926         C2-H9=1.0926         C3-C2=1.5269         C3-C4=1.5238         C3-H10=1.0926        C3-H11=1.0926        
C4-C3=1.5238         C4-H12=1.0881        C4-H13=1.0881        C4-H14=1.0877        H5-C1=1.0877         H6-C1=1.0881         
H7-C1=1.0881         H8-C2=1.0926         H9-C2=1.0926         H10-C3=1.0926        H11-C3=1.0926        H12-C4=1.0881        
H13-C4=1.0881        H14-C4=1.0877        
 C  H  Rav=1.0898 sigma=0.0023  Rmin=1.0877  Rmax=1.0926    10
 C  C  Rav=1.5248 sigma=0.0015  Rmin=1.5238  Rmax=1.5269     3

 selected bond angles (degree)
 --------------------
H5-C1-C2=110.68                H6-C1-C2=110.53                H6-C1-H5=108.38                H7-C1-C2=110.53                
H7-C1-H5=108.38                H7-C1-H6=108.26                C3-C2-C1=111.92                H8-C2-C1=109.41                
H8-C2-C3=109.20                H9-C2-C1=109.41                H9-C2-C3=109.20                H9-C2-H8=107.60                
C4-C3-C2=111.92                H10-C3-C2=109.20               H10-C3-C4=109.41               H11-C3-C2=109.20               
H11-C3-C4=109.41               H11-C3-H10=107.60              H12-C4-C3=110.53               H13-C4-C3=110.53               
H13-C4-H12=108.26              H14-C4-C3=110.68               H14-C4-H12=108.38              H14-C4-H13=108.38              

 selected dihedral angles (degree)
 ---------------------------------
C3-C2-C1-H5=180.00            C3-C2-C1-H6=300.08            C3-C2-C1-H7= 59.92            H8-C2-C1-H5=301.18            
H8-C2-C1-H6= 61.26            H8-C2-C1-H7=181.09            H9-C2-C1-H5= 58.82            H9-C2-C1-H6=178.91            
H9-C2-C1-H7=298.74            C4-C3-C2-C1=180.00            C4-C3-C2-H8= 58.70            C4-C3-C2-H9=301.30            
H10-C3-C2-C1=301.30           H10-C3-C2-H8=180.00           H10-C3-C2-H9= 62.59           H11-C3-C2-C1= 58.70           
H11-C3-C2-H8=297.41           H11-C3-C2-H9=180.00           H12-C4-C3-C2=300.09           H12-C4-C3-H10=178.91          
H12-C4-C3-H11= 61.26          H13-C4-C3-C2= 59.92           H13-C4-C3-H10=298.74          H13-C4-C3-H11=181.09          
H14-C4-C3-C2=180.00           H14-C4-C3-H10= 58.82          H14-C4-C3-H11=301.18          
           -------------------------------------------------
          |                Final Singlepoint                |
           -------------------------------------------------

          ...................................................
          :                      SETUP                      :
          :.................................................:
          :  # basis functions                  26          :
          :  # atomic orbitals                  26          :
          :  # shells                           18          :
          :  # electrons                        26          :
          :  max. iterations                   250          :
          :  Hamiltonian                  GFN2-xTB          :
          :  restarted?                      false          :
          :  GBSA solvation                  false          :
          :  PC potential                    false          :
          :  electronic temp.          300.0000000     K    :
          :  accuracy                    1.0000000          :
          :  -> integral cutoff          0.2500000E+02      :
          :  -> integral neglect         0.1000000E-07      :
          :  -> SCF convergence          0.1000000E-05 Eh   :
          :  -> wf. convergence          0.1000000E-03 e    :
          :  Broyden damping             0.4000000          :
          ...................................................

 iter      E             dE          RMSdq      gap      omega  full diag
   1    -13.8759614 -0.138760E+02  0.312E-05   13.80       0.0  T
   2    -13.8759614 -0.168754E-12  0.185E-05   13.80    1445.5  T
   3    -13.8759614 -0.355271E-13  0.183E-06   13.80   14573.4  T

   *** convergence criteria satisfied after 3 iterations ***

         #    Occupation            Energy/Eh            Energy/eV
      -------------------------------------------------------------
         1        2.0000           -0.6179535             -16.8154
       ...           ...                  ...                  ...
         7        2.0000           -0.4878764             -13.2758
         8        2.0000           -0.4789650             -13.0333
         9        2.0000           -0.4546541             -12.3718
        10        2.0000           -0.4395100             -11.9597
        11        2.0000           -0.4367325             -11.8841
        12        2.0000           -0.4258071             -11.5868
        13        2.0000           -0.4195754             -11.4172 (HOMO)
        14                          0.0876087               2.3840 (LUMO)
        15                          0.1265477               3.4435
        16                          0.1277519               3.4763
        17                          0.1524429               4.1482
        18                          0.1628404               4.4311
       ...                                ...                  ...
        26                          0.3113420               8.4720
      -------------------------------------------------------------
                  HL-Gap            0.5071842 Eh           13.8012 eV
             Fermi-level           -0.1659833 Eh           -4.5166 eV

 SCC (total)                   0 d,  0 h,  0 min,  0.004 sec
 SCC setup                      ...        0 min,  0.000 sec (  5.382%)
 Dispersion                     ...        0 min,  0.000 sec (  6.122%)
 classical contributions        ...        0 min,  0.000 sec (  1.532%)
 integral evaluation            ...        0 min,  0.000 sec (  6.947%)
 iterations                     ...        0 min,  0.002 sec ( 56.469%)
 molecular gradient             ...        0 min,  0.001 sec ( 22.250%)
 printout                       ...        0 min,  0.000 sec (  1.041%)

         :::::::::::::::::::::::::::::::::::::::::::::::::::::
         ::                     SUMMARY                     ::
         :::::::::::::::::::::::::::::::::::::::::::::::::::::
         :: total energy             -13.665127687969 Eh    ::
         :: gradient norm              0.000196156069 Eh/a0 ::
         :: HOMO-LUMO gap             13.801184296490 eV    ::
         ::.................................................::
         :: SCC energy               -13.875961371956 Eh    ::
         :: -> isotropic ES            0.002998220925 Eh    ::
         :: -> anisotropic ES          0.004912584493 Eh    ::
         :: -> anisotropic XC          0.009063250245 Eh    ::
         :: -> dispersion             -0.006049019577 Eh    ::
         :: repulsion energy           0.210829812072 Eh    ::
         :: add. restraining           0.000000000000 Eh    ::
         :: total charge              -0.000000000000 e     ::
         :::::::::::::::::::::::::::::::::::::::::::::::::::::

           -------------------------------------------------
          |                Property Printout                |
           -------------------------------------------------

    * Orbital Energies and Occupations

         #    Occupation            Energy/Eh            Energy/eV
      -------------------------------------------------------------
         1        2.0000           -0.6179535             -16.8154
         2        2.0000           -0.5989522             -16.2983
         3        2.0000           -0.5679071             -15.4535
         4        2.0000           -0.5523945             -15.0314
         5        2.0000           -0.5138283             -13.9820
         6        2.0000           -0.4918329             -13.3835
         7        2.0000           -0.4878764             -13.2758
         8        2.0000           -0.4789650             -13.0333
         9        2.0000           -0.4546541             -12.3718
        10        2.0000           -0.4395100             -11.9597
        11        2.0000           -0.4367325             -11.8841
        12        2.0000           -0.4258071             -11.5868
        13        2.0000           -0.4195754             -11.4172 (HOMO)
        14                          0.0876087               2.3840 (LUMO)
        15                          0.1265477               3.4435
        16                          0.1277519               3.4763
        17                          0.1524429               4.1482
        18                          0.1628404               4.4311
        19                          0.1836180               4.9965
        20                          0.1936960               5.2707
        21                          0.1970830               5.3629
        22                          0.2244717               6.1082
        23                          0.2548299               6.9343
        24                          0.2645046               7.1975
       ...                                ...                  ...
        26                          0.3113420               8.4720
      -------------------------------------------------------------
                  HL-Gap            0.5071842 Eh           13.8012 eV
             Fermi-level           -0.1659833 Eh           -4.5166 eV

     #   Z          covCN         q      C6AA      α(0)
     1   6 C        3.752    -0.102    22.510     6.766
     2   6 C        3.801    -0.053    21.534     6.607
     3   6 C        3.801    -0.053    21.534     6.607
     4   6 C        3.752    -0.102    22.510     6.766
     5   1 H        0.925     0.032     2.554     2.499
     6   1 H        0.925     0.033     2.550     2.497
     7   1 H        0.925     0.033     2.550     2.497
     8   1 H        0.924     0.029     2.600     2.522
     9   1 H        0.924     0.029     2.600     2.522
    10   1 H        0.924     0.029     2.600     2.522
    11   1 H        0.924     0.029     2.600     2.522
    12   1 H        0.925     0.033     2.550     2.497
    13   1 H        0.925     0.033     2.550     2.497
    14   1 H        0.925     0.032     2.554     2.499

 Mol. C6AA /au·bohr⁶  :       1207.501374
 Mol. C8AA /au·bohr⁸  :      24480.573076
 Mol. α(0) /au        :         51.819501


Wiberg/Mayer (AO) data.
largest (>0.10) Wiberg bond orders for each atom

 ---------------------------------------------------------------------------
     #   Z sym  total        # sym  WBO       # sym  WBO       # sym  WBO
 ---------------------------------------------------------------------------
     1   6 C    3.997 --     2 C    1.019     6 H    0.988     7 H    0.988
                             5 H    0.988
     2   6 C    3.998 --     1 C    1.019     3 C    1.009     9 H    0.979
                             8 H    0.979
     3   6 C    3.998 --     4 C    1.019     2 C    1.009    10 H    0.979
                            11 H    0.979
     4   6 C    3.997 --     3 C    1.019    13 H    0.988    12 H    0.988
                            14 H    0.988
     5   1 H    0.999 --     1 C    0.988
     6   1 H    0.999 --     1 C    0.988
     7   1 H    0.999 --     1 C    0.988
     8   1 H    0.999 --     2 C    0.979
     9   1 H    0.999 --     2 C    0.979
    10   1 H    0.999 --     3 C    0.979
    11   1 H    0.999 --     3 C    0.979
    12   1 H    0.999 --     4 C    0.988
    13   1 H    0.999 --     4 C    0.988
    14   1 H    0.999 --     4 C    0.988
 ---------------------------------------------------------------------------

Topologies differ in total number of bonds
Writing topology from bond orders to xtbtopo.mol

molecular dipole:
                 x           y           z       tot (Debye)
 q only:        0.000       0.000       0.000
   full:        0.000       0.000       0.000       0.000
molecular quadrupole (traceless):
                xx          xy          yy          xz          yz          zz
 q only:        0.152       0.022      -0.162       0.093      -0.034       0.011
  q+dip:       -0.939      -0.140       0.892      -0.480       0.161       0.047
   full:       -0.404      -0.061       0.391      -0.210       0.073       0.013

           -------------------------------------------------
          |                Geometry Summary                 |
           -------------------------------------------------

      molecular mass/u    :       58.1223511
   center of mass at/Å    :        0.0000001      -0.0000002       0.2772142
  moments of inertia/u·Å² :        0.2163463E+02   0.1369866E+03   0.1460841E+03
rotational constants/cm⁻¹ :        0.7791965E+00   0.1230604E+00   0.1153968E+00

 * 13 selected distances

     #   Z          #   Z                                           value/Å
     1   6 C        2   6 C                                       1.5238164
     2   6 C        3   6 C                                       1.5268964 (max)
     3   6 C        4   6 C                                       1.5238162
     1   6 C        5   1 H                                       1.0876530
     1   6 C        6   1 H                                       1.0880790
     1   6 C        7   1 H                                       1.0880791
     2   6 C        8   1 H                                       1.0926128
     2   6 C        9   1 H                                       1.0926129
     3   6 C       10   1 H                                       1.0926129
     3   6 C       11   1 H                                       1.0926130
     4   6 C       12   1 H                                       1.0880791
     4   6 C       13   1 H                                       1.0880789
     4   6 C       14   1 H                                       1.0876530 (min)

 * 2 distinct bonds (by element types)

   Z      Z             #   av. dist./Å        max./Å        min./Å
   1 H    6 C          10     1.0898074     1.0926130     1.0876530
   6 C    6 C           3     1.5248430     1.5268964     1.5238162


optimized geometry written to: xtbopt.xyz


           -------------------------------------------------
          | TOTAL ENERGY              -13.665127687969 Eh   |
          | GRADIENT NORM               0.000196156069 Eh/α |
          | HOMO-LUMO GAP              13.801184296490 eV   |
           -------------------------------------------------

------------------------------------------------------------------------
 * finished run on 2024/09/04 at 15:58:53.464     
------------------------------------------------------------------------
 total:
 * wall-time:     0 d,  0 h,  0 min,  9.790 sec
 *  cpu-time:     0 d,  0 h,  0 min,  1.588 sec
 * ratio c/w:     0.162 speedup
 SCF:
 * wall-time:     0 d,  0 h,  0 min,  0.027 sec
 *  cpu-time:     0 d,  0 h,  0 min,  0.082 sec
 * ratio c/w:     3.075 speedup
 ANC optimizer:
 * wall-time:     0 d,  0 h,  0 min,  0.044 sec
 *  cpu-time:     0 d,  0 h,  0 min,  0.174 sec
 * ratio c/w:     3.911 speedup

