      -----------------------------------------------------------      
     |                   =====================                   |     
     |                           x T B                           |     
     |                   =====================                   |     
     |                         S. Grimme                         |     
     |          Mulliken Center for Theoretical Chemistry        |     
     |                    University of Bonn                     |     
      -----------------------------------------------------------      

   * xtb version 6.6.0 (conda-forge) compiled by 'runner@Mac-1676020848589.local' on 2023-02-10

   xtb is free software: you can redistribute it and/or modify it under
   the terms of the GNU Lesser General Public License as published by
   the Free Software Foundation, either version 3 of the License, or
   (at your option) any later version.
   
   xtb is distributed in the hope that it will be useful,
   but WITHOUT ANY WARRANTY; without even the implied warranty of
   MERCHANTABILITY or FITNESS FOR A PARTICULAR PURPOSE.  See the
   GNU Lesser General Public License for more details.
   
   Cite this work as:
   * C. Bannwarth, E. Caldeweyher, S. Ehlert, A. Hansen, P. Pracht,
     J. Seibert, S. Spicher, S. Grimme, WIREs Comput. Mol. Sci., 2020, 11,
     e01493. DOI: 10.1002/wcms.1493
   
   for GFN2-xTB:
   * C. Bannwarth, S. Ehlert and S. Grimme., J. Chem. Theory Comput., 2019,
     15, 1652-1671. DOI: 10.1021/acs.jctc.8b01176
   for GFN1-xTB:
   * S. Grimme, C. Bannwarth, P. Shushkov, J. Chem. Theory Comput., 2017,
     13, 1989-2009. DOI: 10.1021/acs.jctc.7b00118
   for GFN0-xTB:
   * P. Pracht, E. Caldeweyher, S. Ehlert, S. Grimme, ChemRxiv, 2019, preprint.
     DOI: 10.26434/chemrxiv.8326202.v1
   for GFN-FF:
   * S. Spicher and S. Grimme, Angew. Chem. Int. Ed., 2020, 59, 15665-15673.
     DOI: 10.1002/anie.202004239
   
   for ALPB and GBSA implicit solvation:
   * S. Ehlert, M. Stahn, S. Spicher, S. Grimme, J. Chem. Theory Comput.,
     2021, 17, 4250-4261. DOI: 10.1021/acs.jctc.1c00471
   
   for DFT-D4:
   * E. Caldeweyher, C. Bannwarth and S. Grimme, J. Chem. Phys., 2017,
     147, 034112. DOI: 10.1063/1.4993215
   * E. Caldeweyher, S. Ehlert, A. Hansen, H. Neugebauer, S. Spicher,
     C. Bannwarth and S. Grimme, J. Chem. Phys., 2019, 150, 154122.
     DOI: 10.1063/1.5090222
   * E. Caldeweyher, J.-M. Mewes, S. Ehlert and S. Grimme, Phys. Chem. Chem. Phys.
     2020, 22, 8499-8512. DOI: 10.1039/D0CP00502A
   
   for sTDA-xTB:
   * S. Grimme and C. Bannwarth, J. Chem. Phys., 2016, 145, 054103.
     DOI: 10.1063/1.4959605
   
   in the mass-spec context:
   * V. Asgeirsson, C. Bauer and S. Grimme, Chem. Sci., 2017, 8, 4879.
     DOI: 10.1039/c7sc00601b
   * J. Koopman and S. Grimme, ACS Omega 2019, 4, 12, 15120-15133.
     DOI: 10.1021/acsomega.9b02011
   
   for metadynamics refer to:
   * S. Grimme, J. Chem. Theory Comput., 2019, 155, 2847-2862
     DOI: 10.1021/acs.jctc.9b00143
   
   for SPH calculations refer to:
   * S. Spicher and S. Grimme, J. Chem. Theory Comput., 2021, 17, 1701-1714
     DOI: 10.1021/acs.jctc.0c01306
   
   with help from (in alphabetical order)
   P. Atkinson, C. Bannwarth, F. Bohle, G. Brandenburg, E. Caldeweyher
   M. Checinski, S. Dohm, S. Ehlert, S. Ehrlich, I. Gerasimov, C. Hölzer
   A. Katbashev, J. Koopman, C. Lavigne, S. Lehtola, F. März, M. Müller,
   F. Musil, H. Neugebauer, J. Pisarek, C. Plett, P. Pracht, F. Pultar,
   J. Seibert, P. Shushkov, S. Spicher, M. Stahn, M. Steiner, T. Strunk,
   J. Stückrath, T. Rose, and J. Unsleber
   
 * started run on 2024/09/04 at 23:46:07.264     

           -------------------------------------------------
          |                Calculation Setup                |
           -------------------------------------------------

          program call               : xtb xtbopt.xyz --gfn2 --chrg 0 --hess
          coordinate file            : xtbopt.xyz
          omp threads                :                     8

   ID    Z sym.   atoms
    1    6 C      1
    2    1 H      2-5

           -------------------------------------------------
          |                 G F N 2 - x T B                 |
           -------------------------------------------------

        Reference                      10.1021/acs.jctc.8b01176
      * Hamiltonian:
        H0-scaling (s, p, d)           1.850000    2.230000    2.230000
        zeta-weighting                 0.500000
      * Dispersion:
        s8                             2.700000
        a1                             0.520000
        a2                             5.000000
        s9                             5.000000
      * Repulsion:
        kExp                           1.500000    1.000000
        rExp                           1.000000
      * Coulomb:
        alpha                          2.000000
        third order                    shell-resolved
        anisotropic                    true
        a3                             3.000000
        a5                             4.000000
        cn-shift                       1.200000
        cn-exp                         4.000000
        max-rad                        5.000000

q/qsh data taken from xtbrestart
CAMM data taken from xtbrestart

          ...................................................
          :                      SETUP                      :
          :.................................................:
          :  # basis functions                   8          :
          :  # atomic orbitals                   8          :
          :  # shells                            6          :
          :  # electrons                         8          :
          :  max. iterations                   250          :
          :  Hamiltonian                  GFN2-xTB          :
          :  restarted?                       true          :
          :  GBSA solvation                  false          :
          :  PC potential                    false          :
          :  electronic temp.          300.0000000     K    :
          :  accuracy                    1.0000000          :
          :  -> integral cutoff          0.2500000E+02      :
          :  -> integral neglect         0.1000000E-07      :
          :  -> SCF convergence          0.1000000E-05 Eh   :
          :  -> wf. convergence          0.1000000E-03 e    :
          :  Broyden damping             0.4000000          :
          ...................................................

 iter      E             dE          RMSdq      gap      omega  full diag
   1     -4.2473691 -0.424737E+01  0.531E-10   17.34       0.0  T
   2     -4.2473691  0.177636E-14  0.311E-10   17.34  100000.0  T
   3     -4.2473691  0.444089E-14  0.132E-11   17.34  100000.0  T

   *** convergence criteria satisfied after 3 iterations ***

         #    Occupation            Energy/Eh            Energy/eV
      -------------------------------------------------------------
         1        2.0000           -0.5818053             -15.8317
         2        2.0000           -0.4674451             -12.7198
         3        2.0000           -0.4674450             -12.7198
         4        2.0000           -0.4674449             -12.7198 (HOMO)
         5                          0.1699457               4.6245 (LUMO)
         6                          0.2289725               6.2307
         7                          0.2289729               6.2307
         8                          0.2289734               6.2307
      -------------------------------------------------------------
                  HL-Gap            0.6373905 Eh           17.3443 eV
             Fermi-level           -0.1487496 Eh           -4.0477 eV

 SCC (total)                   0 d,  0 h,  0 min,  0.003 sec
 SCC setup                      ...        0 min,  0.001 sec ( 17.880%)
 Dispersion                     ...        0 min,  0.000 sec (  2.359%)
 classical contributions        ...        0 min,  0.000 sec (  0.895%)
 integral evaluation            ...        0 min,  0.000 sec (  6.744%)
 iterations                     ...        0 min,  0.002 sec ( 61.030%)
 molecular gradient             ...        0 min,  0.000 sec (  8.625%)
 printout                       ...        0 min,  0.000 sec (  1.912%)

         :::::::::::::::::::::::::::::::::::::::::::::::::::::
         ::                     SUMMARY                     ::
         :::::::::::::::::::::::::::::::::::::::::::::::::::::
         :: total energy              -4.175218442538 Eh    ::
         :: gradient norm              0.000237506982 Eh/a0 ::
         :: HOMO-LUMO gap             17.344279043996 eV    ::
         ::.................................................::
         :: SCC energy                -4.247369076851 Eh    ::
         :: -> isotropic ES            0.002034163228 Eh    ::
         :: -> anisotropic ES          0.002325015489 Eh    ::
         :: -> anisotropic XC          0.003589356662 Eh    ::
         :: -> dispersion             -0.000661040243 Eh    ::
         :: repulsion energy           0.072150628716 Eh    ::
         :: add. restraining           0.000000000000 Eh    ::
         :: total charge              -0.000000000000 e     ::
         :::::::::::::::::::::::::::::::::::::::::::::::::::::

           ------------------------------------------------- 
          |                Numerical Hessian                |
           ------------------------------------------------- 
step length          :   0.00500
SCC accuracy         :   0.30000
Hessian scale factor :   1.00000
frozen atoms in %    :   0.00000    0
RMS gradient         :   0.00024
estimated CPU  time      0.00 min
estimated wall time      0.00 min

writing file <hessian>.

 projected vibrational frequencies (cm⁻¹)
eigval :       -0.00    -0.00    -0.00     0.00     0.00     0.00
eigval :     1385.89  1386.02  1386.06  1557.32  1557.34  3088.77
eigval :     3102.24  3102.30  3102.55
           -------------------------------------------------
          |                Property Printout                |
           -------------------------------------------------

    * Orbital Energies and Occupations

         #    Occupation            Energy/Eh            Energy/eV
      -------------------------------------------------------------
         1        2.0000           -0.5818053             -15.8317
         2        2.0000           -0.4674451             -12.7198
         3        2.0000           -0.4674450             -12.7198
         4        2.0000           -0.4674449             -12.7198 (HOMO)
         5                          0.1699457               4.6245 (LUMO)
         6                          0.2289725               6.2307
         7                          0.2289729               6.2307
         8                          0.2289734               6.2307
      -------------------------------------------------------------
                  HL-Gap            0.6373905 Eh           17.3443 eV
             Fermi-level           -0.1487496 Eh           -4.0477 eV

     #   Z          covCN         q      C6AA      α(0)
     1   6 C        3.702    -0.156    23.686     6.959
     2   1 H        0.925     0.039     2.463     2.454
     3   1 H        0.925     0.039     2.463     2.454
     4   1 H        0.925     0.039     2.463     2.454
     5   1 H        0.925     0.039     2.463     2.454

 Mol. C6AA /au·bohr⁶  :        123.838825
 Mol. C8AA /au·bohr⁸  :       2297.179296
 Mol. α(0) /au        :         16.776959


Wiberg/Mayer (AO) data.
largest (>0.10) Wiberg bond orders for each atom

 ---------------------------------------------------------------------------
     #   Z sym  total        # sym  WBO       # sym  WBO       # sym  WBO
 ---------------------------------------------------------------------------
     1   6 C    3.994 --     3 H    0.998     5 H    0.998     2 H    0.998
                             4 H    0.998
     2   1 H    0.998 --     1 C    0.998
     3   1 H    0.998 --     1 C    0.998
     4   1 H    0.998 --     1 C    0.998
     5   1 H    0.998 --     1 C    0.998
 ---------------------------------------------------------------------------

Topologies differ in total number of bonds
Writing topology from bond orders to xtbtopo.mol
Refinement of some symmetry elements was terminated before convergence was reached.
Some symmetry elements may remain unidentified.
Molecule has the following symmetry elements: 4*(C3) 3*(C2) 3*(S4) 6*(sigma) 
It seems to be the Td point group

molecular dipole:
                 x           y           z       tot (Debye)
 q only:        0.000       0.000       0.000
   full:        0.000       0.000       0.000       0.000
molecular quadrupole (traceless):
                xx          xy          yy          xz          yz          zz
 q only:        0.000       0.000       0.000       0.000       0.000      -0.000
  q+dip:        0.000       0.000       0.000       0.000       0.000      -0.000
   full:        0.000       0.000       0.000       0.000       0.000      -0.000

           -------------------------------------------------
          |               Frequency Printout                |
           -------------------------------------------------
 projected vibrational frequencies (cm⁻¹)
eigval :       -0.00    -0.00    -0.00     0.00     0.00     0.00
eigval :     1385.89  1386.02  1386.06  1557.32  1557.34  3088.77
eigval :     3102.24  3102.30  3102.55
 reduced masses (amu)
   1:  4.71   2:  6.92   3:  7.19   4:  5.97   5:  3.57   6:  2.40   7:  2.85   8:  2.85
   9:  2.85  10:  1.01  11:  1.01  12:  1.01  13:  1.93  14:  1.93  15:  1.93
 IR intensities (km·mol⁻¹)
   1:  0.00   2:  0.00   3:  0.00   4:  0.00   5:  0.00   6:  0.00   7: 14.39   8: 14.63
   9: 14.69  10:  0.00  11:  0.00  12:  0.00  13: 29.46  14: 29.32  15: 28.97
 Raman intensities (amu)
   1:  0.00   2:  0.00   3:  0.00   4:  0.00   5:  0.00   6:  0.00   7:  0.00   8:  0.00
   9:  0.00  10:  0.00  11:  0.00  12:  0.00  13:  0.00  14:  0.00  15:  0.00
 output can be read by thermo (or use thermo option).
 writing <g98.out> molden fake output.
 recommended (thermochemical) frequency scaling factor: 1.0
           -------------------------------------------------
          |             Thermodynamic Functions             |
           -------------------------------------------------

td  symmetry found (for desy threshold:  0.10E+00) used in thermo

          ...................................................
          :                      SETUP                      :
          :.................................................:
          :  # frequencies                           9      :
          :  # imaginary freq.                       0      :
          :  linear?                             false      :
          :  only rotor calc.                    false      :
          :  symmetry                               td      :
          :  rotational number                      12      :
          :  scaling factor                  1.0000000      :
          :  rotor cutoff                   50.0000000 cm⁻¹ :
          :  imag. cutoff                  -20.0000000 cm⁻¹ :
          :.................................................:

    mode    ω/cm⁻¹     T·S(HO)/kcal·mol⁻¹    T·S(FR)/kcal·mol⁻¹   T·S(vib)
   ------------------------------------------------------------------------
   ------------------------------------------------------------------------

   temp. (K)  partition function   enthalpy   heat capacity  entropy
                                   cal/mol     cal/K/mol   cal/K/mol   J/K/mol
 298.15  VIB   1.00                   19.689      0.456      0.076
         ROT   35.6                  888.752      2.981     10.078
         INT   35.7                  908.441      3.437     10.154
         TR   0.622E+26             1481.254      4.968     34.248
         TOT                        2389.6953     8.4050    44.4017   185.7768

       T/K    H(0)-H(T)+PV         H(T)/Eh          T*S/Eh         G(T)/Eh
   ------------------------------------------------------------------------
    298.15    0.380822E-02    0.486163E-01    0.210967E-01    0.275196E-01
   ------------------------------------------------------------------------

         :::::::::::::::::::::::::::::::::::::::::::::::::::::
         ::                  THERMODYNAMIC                  ::
         :::::::::::::::::::::::::::::::::::::::::::::::::::::
         :: total free energy          -4.147698800105 Eh   ::
         ::.................................................::
         :: total energy               -4.175218442538 Eh   ::
         :: zero point energy           0.044808113501 Eh   ::
         :: G(RRHO) w/o ZPVE           -0.017288471068 Eh   ::
         :: G(RRHO) contrib.            0.027519642433 Eh   ::
         :::::::::::::::::::::::::::::::::::::::::::::::::::::

           -------------------------------------------------
          | TOTAL ENERGY               -4.175218442538 Eh   |
          | TOTAL ENTHALPY             -4.126602107209 Eh   |
          | TOTAL FREE ENERGY          -4.147698800105 Eh   |
          | GRADIENT NORM               0.000237506982 Eh/α |
          | HOMO-LUMO GAP              17.344279043996 eV   |
           -------------------------------------------------

------------------------------------------------------------------------
 * finished run on 2024/09/04 at 23:46:07.576     
------------------------------------------------------------------------
 total:
 * wall-time:     0 d,  0 h,  0 min,  0.311 sec
 *  cpu-time:     0 d,  0 h,  0 min,  1.796 sec
 * ratio c/w:     5.779 speedup
 SCF:
 * wall-time:     0 d,  0 h,  0 min,  0.003 sec
 *  cpu-time:     0 d,  0 h,  0 min,  0.025 sec
 * ratio c/w:     7.537 speedup
 analytical hessian:
 * wall-time:     0 d,  0 h,  0 min,  0.009 sec
 *  cpu-time:     0 d,  0 h,  0 min,  0.064 sec
 * ratio c/w:     7.124 speedup

