      -----------------------------------------------------------      
     |                   =====================                   |     
     |                           x T B                           |     
     |                   =====================                   |     
     |                         S. Grimme                         |     
     |          Mulliken Center for Theoretical Chemistry        |     
     |                    University of Bonn                     |     
      -----------------------------------------------------------      

   * xtb version 6.6.0 (conda-forge) compiled by 'runner@Mac-1676020848589.local' on 2023-02-10

   xtb is free software: you can redistribute it and/or modify it under
   the terms of the GNU Lesser General Public License as published by
   the Free Software Foundation, either version 3 of the License, or
   (at your option) any later version.
   
   xtb is distributed in the hope that it will be useful,
   but WITHOUT ANY WARRANTY; without even the implied warranty of
   MERCHANTABILITY or FITNESS FOR A PARTICULAR PURPOSE.  See the
   GNU Lesser General Public License for more details.
   
   Cite this work as:
   * C. Bannwarth, E. Caldeweyher, S. Ehlert, A. Hansen, P. Pracht,
     J. Seibert, S. Spicher, S. Grimme, WIREs Comput. Mol. Sci., 2020, 11,
     e01493. DOI: 10.1002/wcms.1493
   
   for GFN2-xTB:
   * C. Bannwarth, S. Ehlert and S. Grimme., J. Chem. Theory Comput., 2019,
     15, 1652-1671. DOI: 10.1021/acs.jctc.8b01176
   for GFN1-xTB:
   * S. Grimme, C. Bannwarth, P. Shushkov, J. Chem. Theory Comput., 2017,
     13, 1989-2009. DOI: 10.1021/acs.jctc.7b00118
   for GFN0-xTB:
   * P. Pracht, E. Caldeweyher, S. Ehlert, S. Grimme, ChemRxiv, 2019, preprint.
     DOI: 10.26434/chemrxiv.8326202.v1
   for GFN-FF:
   * S. Spicher and S. Grimme, Angew. Chem. Int. Ed., 2020, 59, 15665-15673.
     DOI: 10.1002/anie.202004239
   
   for ALPB and GBSA implicit solvation:
   * S. Ehlert, M. Stahn, S. Spicher, S. Grimme, J. Chem. Theory Comput.,
     2021, 17, 4250-4261. DOI: 10.1021/acs.jctc.1c00471
   
   for DFT-D4:
   * E. Caldeweyher, C. Bannwarth and S. Grimme, J. Chem. Phys., 2017,
     147, 034112. DOI: 10.1063/1.4993215
   * E. Caldeweyher, S. Ehlert, A. Hansen, H. Neugebauer, S. Spicher,
     C. Bannwarth and S. Grimme, J. Chem. Phys., 2019, 150, 154122.
     DOI: 10.1063/1.5090222
   * E. Caldeweyher, J.-M. Mewes, S. Ehlert and S. Grimme, Phys. Chem. Chem. Phys.
     2020, 22, 8499-8512. DOI: 10.1039/D0CP00502A
   
   for sTDA-xTB:
   * S. Grimme and C. Bannwarth, J. Chem. Phys., 2016, 145, 054103.
     DOI: 10.1063/1.4959605
   
   in the mass-spec context:
   * V. Asgeirsson, C. Bauer and S. Grimme, Chem. Sci., 2017, 8, 4879.
     DOI: 10.1039/c7sc00601b
   * J. Koopman and S. Grimme, ACS Omega 2019, 4, 12, 15120-15133.
     DOI: 10.1021/acsomega.9b02011
   
   for metadynamics refer to:
   * S. Grimme, J. Chem. Theory Comput., 2019, 155, 2847-2862
     DOI: 10.1021/acs.jctc.9b00143
   
   for SPH calculations refer to:
   * S. Spicher and S. Grimme, J. Chem. Theory Comput., 2021, 17, 1701-1714
     DOI: 10.1021/acs.jctc.0c01306
   
   with help from (in alphabetical order)
   P. Atkinson, C. Bannwarth, F. Bohle, G. Brandenburg, E. Caldeweyher
   M. Checinski, S. Dohm, S. Ehlert, S. Ehrlich, I. Gerasimov, C. Hölzer
   A. Katbashev, J. Koopman, C. Lavigne, S. Lehtola, F. März, M. Müller,
   F. Musil, H. Neugebauer, J. Pisarek, C. Plett, P. Pracht, F. Pultar,
   J. Seibert, P. Shushkov, S. Spicher, M. Stahn, M. Steiner, T. Strunk,
   J. Stückrath, T. Rose, and J. Unsleber
   
 * started run on 2024/09/04 at 10:17:53.765     

           -------------------------------------------------
          |                Calculation Setup                |
           -------------------------------------------------

          program call               : xtb input_molecule.xyz --opt
          coordinate file            : input_molecule.xyz
          omp threads                :                     8

   ID    Z sym.   atoms
    1    6 C      1
    2    7 N      2
    3    1 H      3

           -------------------------------------------------
          |                 G F N 2 - x T B                 |
           -------------------------------------------------

        Reference                      10.1021/acs.jctc.8b01176
      * Hamiltonian:
        H0-scaling (s, p, d)           1.850000    2.230000    2.230000
        zeta-weighting                 0.500000
      * Dispersion:
        s8                             2.700000
        a1                             0.520000
        a2                             5.000000
        s9                             5.000000
      * Repulsion:
        kExp                           1.500000    1.000000
        rExp                           1.000000
      * Coulomb:
        alpha                          2.000000
        third order                    shell-resolved
        anisotropic                    true
        a3                             3.000000
        a5                             4.000000
        cn-shift                       1.200000
        cn-exp                         4.000000
        max-rad                        5.000000


          ...................................................
          :                      SETUP                      :
          :.................................................:
          :  # basis functions                   9          :
          :  # atomic orbitals                   9          :
          :  # shells                            5          :
          :  # electrons                        10          :
          :  max. iterations                   250          :
          :  Hamiltonian                  GFN2-xTB          :
          :  restarted?                      false          :
          :  GBSA solvation                  false          :
          :  PC potential                    false          :
          :  electronic temp.          300.0000000     K    :
          :  accuracy                    1.0000000          :
          :  -> integral cutoff          0.2500000E+02      :
          :  -> integral neglect         0.1000000E-07      :
          :  -> SCF convergence          0.1000000E-05 Eh   :
          :  -> wf. convergence          0.1000000E-03 e    :
          :  Broyden damping             0.4000000          :
          ...................................................

 iter      E             dE          RMSdq      gap      omega  full diag
   1     -5.5846118 -0.558461E+01  0.101E+01    6.27       0.0  T
   2     -5.5838295  0.782297E-03  0.712E+00    6.62       1.0  T
   3     -5.5936904 -0.986084E-02  0.442E+00    5.71       1.0  T
   4     -5.6176759 -0.239855E-01  0.653E-01    5.74       1.0  T
   5     -5.6180165 -0.340552E-03  0.140E-01    5.73       1.0  T
   6     -5.6180462 -0.297263E-04  0.937E-02    5.75       1.0  T
   7     -5.6180628 -0.166328E-04  0.656E-03    5.74       8.8  T
   8     -5.6180629 -0.721234E-07  0.479E-03    5.74      12.1  T
   9     -5.6180629 -0.533729E-07  0.225E-04    5.74     256.6  T
  10     -5.6180629 -0.101109E-09  0.412E-05    5.74    1401.4  T

   *** convergence criteria satisfied after 10 iterations ***

         #    Occupation            Energy/Eh            Energy/eV
      -------------------------------------------------------------
         1        2.0000           -0.6608240             -17.9819
         2        2.0000           -0.5757612             -15.6673
         3        2.0000           -0.5026870             -13.6788
         4        2.0000           -0.5026870             -13.6788
         5        2.0000           -0.4509790             -12.2718 (HOMO)
         6                         -0.2399229              -6.5286 (LUMO)
         7                         -0.2399228              -6.5286
         8                          0.1099616               2.9922
         9                          1.0431518              28.3856
      -------------------------------------------------------------
                  HL-Gap            0.2110561 Eh            5.7431 eV
             Fermi-level           -0.3454509 Eh           -9.4002 eV

 SCC (total)                   0 d,  0 h,  0 min,  0.003 sec
 SCC setup                      ...        0 min,  0.000 sec ( 16.220%)
 Dispersion                     ...        0 min,  0.000 sec (  1.776%)
 classical contributions        ...        0 min,  0.000 sec (  0.556%)
 integral evaluation            ...        0 min,  0.000 sec (  4.184%)
 iterations                     ...        0 min,  0.002 sec ( 65.975%)
 molecular gradient             ...        0 min,  0.000 sec (  8.284%)
 printout                       ...        0 min,  0.000 sec (  2.606%)

         :::::::::::::::::::::::::::::::::::::::::::::::::::::
         ::                     SUMMARY                     ::
         :::::::::::::::::::::::::::::::::::::::::::::::::::::
         :: total energy              -5.503167151290 Eh    ::
         :: gradient norm              0.067087846009 Eh/a0 ::
         :: HOMO-LUMO gap              5.743129870520 eV    ::
         ::.................................................::
         :: SCC energy                -5.618062946005 Eh    ::
         :: -> isotropic ES            0.004770000748 Eh    ::
         :: -> anisotropic ES          0.000325708735 Eh    ::
         :: -> anisotropic XC          0.021455690349 Eh    ::
         :: -> dispersion             -0.000495001002 Eh    ::
         :: repulsion energy           0.114895795688 Eh    ::
         :: add. restraining           0.000000000000 Eh    ::
         :: total charge              -0.000000000000 e     ::
         :::::::::::::::::::::::::::::::::::::::::::::::::::::

      ----------------------------------------------------------- 
     |                   =====================                   |
     |                        A N C O P T                        |
     |                   =====================                   |
     |               Approximate Normal Coordinate               |
     |                Rational Function Optimizer                |
      ----------------------------------------------------------- 

          ...................................................
          :                      SETUP                      :
          :.................................................:
          :   optimization level            normal          :
          :   max. optcycles                   200          :
          :   ANC micro-cycles                  20          :
          :   degrees of freedom                 4          :
          :.................................................:
          :   RF solver                   davidson          :
          :   write xtbopt.log                true          :
          :   linear (good luck)              true          :
          :   energy convergence         0.5000000E-05 Eh   :
          :   grad. convergence          0.1000000E-02 Eh/α :
          :   maxmium RF displ.          1.0000000          :
          :   Hlow (freq-cutoff)         0.1000000E-01      :
          :   Hmax (freq-cutoff)         5.0000000          :
          :   S6 in model hess.         20.0000000          :
          ...................................................

generating ANC from model Hessian ...
Using Lindh-Hessian (1995)
 Shifting diagonal of input Hessian by    9.7393147842665482E-003
 Lowest  eigenvalues of input Hessian
    0.000000    0.000000    0.000000    0.000000    0.000000    0.010000
    0.563913    0.615211    2.445478
 Highest eigenvalues
    0.000000    0.000000    0.010000    0.563913    0.615211    2.445478


........................................................................
.............................. CYCLE    1 ..............................
........................................................................

 iter      E             dE          RMSdq      gap      omega  full diag
   1     -5.6180629 -0.561806E+01  0.155E-06    5.74       0.0  T
   2     -5.6180629  0.266454E-14  0.136E-06    5.74   42522.2  T
   3     -5.6180629 -0.532907E-14  0.609E-07    5.74   94756.7  T
     SCC iter.                  ...        0 min,  0.000 sec
     gradient                   ...        0 min,  0.000 sec
 * total energy  :    -5.5031672 Eh     change       -0.3407941E-11 Eh
   gradient norm :     0.0670878 Eh/α   predicted     0.0000000E+00 (-100.00%)
   displ. norm   :     0.0372875 α      lambda       -0.2153906E-02
   maximum displ.:     0.0266054 α      in ANC's #4, #3, #2, ...

........................................................................
.............................. CYCLE    2 ..............................
........................................................................

 iter      E             dE          RMSdq      gap      omega  full diag
   1     -5.6358106 -0.563581E+01  0.196E-01    6.00       0.0  T
   2     -5.6358113 -0.744717E-06  0.114E-01    5.99       1.0  T
   3     -5.6358003  0.110708E-04  0.811E-02    6.01       1.0  T
   4     -5.6358137 -0.134461E-04  0.878E-03    6.00       6.6  T
   5     -5.6358138 -0.305897E-07  0.199E-03    6.00      28.9  T
   6     -5.6358138 -0.187016E-08  0.417E-04    6.00     138.5  T
   7     -5.6358138 -0.243354E-09  0.354E-05    6.00    1630.9  T
     SCC iter.                  ...        0 min,  0.001 sec
     gradient                   ...        0 min,  0.000 sec
 * total energy  :    -5.5040179 Eh     change       -0.8507463E-03 Eh
   gradient norm :     0.0160247 Eh/α   predicted    -0.1078452E-02 (  26.77%)
   displ. norm   :     0.0076943 α      lambda       -0.1036147E-03
   maximum displ.:     0.0058062 α      in ANC's #3, #4, #2, ...

........................................................................
.............................. CYCLE    3 ..............................
........................................................................

 iter      E             dE          RMSdq      gap      omega  full diag
   1     -5.6322640 -0.563226E+01  0.404E-02    5.95       0.0  T
   2     -5.6322641 -0.262137E-07  0.236E-02    5.95       2.4  T
   3     -5.6322636  0.489983E-06  0.165E-02    5.94       3.5  T
   4     -5.6322642 -0.585154E-06  0.182E-03    5.95      31.7  T
   5     -5.6322642 -0.120071E-08  0.438E-04    5.95     131.7  T
   6     -5.6322642 -0.144705E-09  0.179E-05    5.95    3227.2  T
     SCC iter.                  ...        0 min,  0.000 sec
     gradient                   ...        0 min,  0.000 sec
 * total energy  :    -5.5040660 Eh     change       -0.4809210E-04 Eh
   gradient norm :     0.0011707 Eh/α   predicted    -0.5180994E-04 (   7.73%)
   displ. norm   :     0.0006051 α      lambda       -0.4558770E-06
   maximum displ.:     0.0005488 α      in ANC's #4, #3, #2, ...

........................................................................
.............................. CYCLE    4 ..............................
........................................................................

 iter      E             dE          RMSdq      gap      omega  full diag
   1     -5.6325691 -0.563257E+01  0.333E-03    5.95       0.0  T
   2     -5.6325691 -0.247843E-09  0.186E-03    5.95      31.0  T
   3     -5.6325691  0.331607E-08  0.163E-03    5.95      35.5  T
   4     -5.6325691 -0.455136E-08  0.153E-04    5.95     377.5  T
   5     -5.6325691 -0.576073E-11  0.403E-05    5.95    1431.0  T
     SCC iter.                  ...        0 min,  0.000 sec
     gradient                   ...        0 min,  0.000 sec
 * total energy  :    -5.5040662 Eh     change       -0.1843324E-06 Eh
   gradient norm :     0.0005253 Eh/α   predicted    -0.2264202E-06 (  22.83%)
   displ. norm   :     0.0002165 α      lambda       -0.6590578E-07
   maximum displ.:     0.0001612 α      in ANC's #4, #3, #2, ...

   *** GEOMETRY OPTIMIZATION CONVERGED AFTER 4 ITERATIONS ***

------------------------------------------------------------------------
 total energy gain   :        -0.0008990 Eh       -0.5641 kcal/mol
 total RMSD          :         0.0174349 a0        0.0092 Å
 total power (kW/mol):        -0.5900959 (step) -462.1927 (real)
------------------------------------------------------------------------

 ANCopt (total)                0 d,  0 h,  0 min,  0.005 sec
 optimizer setup                ...        0 min,  0.000 sec (  1.353%)
 model hessian                  ...        0 min,  0.000 sec (  0.331%)
 ANC generation                 ...        0 min,  0.000 sec (  0.956%)
 coordinate transformation      ...        0 min,  0.000 sec (  0.191%)
 single point calculation       ...        0 min,  0.003 sec ( 60.050%)
 optimization log               ...        0 min,  0.000 sec (  4.758%)
 hessian update                 ...        0 min,  0.000 sec (  0.998%)
 rational function              ...        0 min,  0.001 sec ( 28.171%)

================
 final structure:
================
3
 xtb: 6.6.0 (conda-forge)
C           -0.02535592969226        0.00711501037445       -0.00000000000000
N            1.06993747892635       -0.29987571948119        0.00000000000000
H           -1.04458154923410        0.29276070910674       -0.00000000000000

 Bond Distances (Angstroems)
 ---------------------------
C1-N2=1.1375         C1-H3=1.0585         N2-C1=1.1375         H3-C1=1.0585         
 C  H  Rav=1.0585 sigma=0.0000  Rmin=1.0585  Rmax=1.0585     1
 N  C  Rav=1.1375 sigma=0.0000  Rmin=1.1375  Rmax=1.1375     1

 selected bond angles (degree)
 --------------------
H3-C1-N2=180.00                

 selected dihedral angles (degree)
 ---------------------------------

           -------------------------------------------------
          |                Final Singlepoint                |
           -------------------------------------------------

          ...................................................
          :                      SETUP                      :
          :.................................................:
          :  # basis functions                   9          :
          :  # atomic orbitals                   9          :
          :  # shells                            5          :
          :  # electrons                        10          :
          :  max. iterations                   250          :
          :  Hamiltonian                  GFN2-xTB          :
          :  restarted?                      false          :
          :  GBSA solvation                  false          :
          :  PC potential                    false          :
          :  electronic temp.          300.0000000     K    :
          :  accuracy                    1.0000000          :
          :  -> integral cutoff          0.2500000E+02      :
          :  -> integral neglect         0.1000000E-07      :
          :  -> SCF convergence          0.1000000E-05 Eh   :
          :  -> wf. convergence          0.1000000E-03 e    :
          :  Broyden damping             0.4000000          :
          ...................................................

 iter      E             dE          RMSdq      gap      omega  full diag
   1     -5.6325691 -0.563257E+01  0.131E-06    5.95       0.0  T
   2     -5.6325691 -0.266454E-14  0.733E-07    5.95   78788.5  T
   3     -5.6325691  0.710543E-14  0.683E-07    5.95   84495.9  T

   *** convergence criteria satisfied after 3 iterations ***

         #    Occupation            Energy/Eh            Energy/eV
      -------------------------------------------------------------
         1        2.0000           -0.6644558             -18.0808
         2        2.0000           -0.5757547             -15.6671
         3        2.0000           -0.5064904             -13.7823
         4        2.0000           -0.5064904             -13.7823
         5        2.0000           -0.4498726             -12.2417 (HOMO)
         6                         -0.2311645              -6.2903 (LUMO)
         7                         -0.2311645              -6.2903
         8                          0.1196696               3.2564
         9                          1.1401900              31.0261
      -------------------------------------------------------------
                  HL-Gap            0.2187081 Eh            5.9514 eV
             Fermi-level           -0.3405186 Eh           -9.2660 eV

 SCC (total)                   0 d,  0 h,  0 min,  0.000 sec
 SCC setup                      ...        0 min,  0.000 sec (  8.738%)
 Dispersion                     ...        0 min,  0.000 sec (  8.044%)
 classical contributions        ...        0 min,  0.000 sec (  3.877%)
 integral evaluation            ...        0 min,  0.000 sec ( 13.831%)
 iterations                     ...        0 min,  0.000 sec ( 36.690%)
 molecular gradient             ...        0 min,  0.000 sec ( 21.123%)
 printout                       ...        0 min,  0.000 sec (  6.076%)

         :::::::::::::::::::::::::::::::::::::::::::::::::::::
         ::                     SUMMARY                     ::
         :::::::::::::::::::::::::::::::::::::::::::::::::::::
         :: total energy              -5.504066173989 Eh    ::
         :: gradient norm              0.000525365326 Eh/a0 ::
         :: HOMO-LUMO gap              5.951350186972 eV    ::
         ::.................................................::
         :: SCC energy                -5.632569114694 Eh    ::
         :: -> isotropic ES            0.004723388067 Eh    ::
         :: -> anisotropic ES          0.000295836466 Eh    ::
         :: -> anisotropic XC          0.021113957309 Eh    ::
         :: -> dispersion             -0.000496467565 Eh    ::
         :: repulsion energy           0.128502941621 Eh    ::
         :: add. restraining           0.000000000000 Eh    ::
         :: total charge               0.000000000000 e     ::
         :::::::::::::::::::::::::::::::::::::::::::::::::::::

           -------------------------------------------------
          |                Property Printout                |
           -------------------------------------------------

    * Orbital Energies and Occupations

         #    Occupation            Energy/Eh            Energy/eV
      -------------------------------------------------------------
         1        2.0000           -0.6644558             -18.0808
         2        2.0000           -0.5757547             -15.6671
         3        2.0000           -0.5064904             -13.7823
         4        2.0000           -0.5064904             -13.7823
         5        2.0000           -0.4498726             -12.2417 (HOMO)
         6                         -0.2311645              -6.2903 (LUMO)
         7                         -0.2311645              -6.2903
         8                          0.1196696               3.2564
         9                          1.1401900              31.0261
      -------------------------------------------------------------
                  HL-Gap            0.2187081 Eh            5.9514 eV
             Fermi-level           -0.3405186 Eh           -9.2660 eV

     #   Z          covCN         q      C6AA      α(0)
     1   6 C        1.838     0.075    29.261     8.739
     2   7 N        0.910    -0.158    24.420     7.147
     3   1 H        0.927     0.083     1.952     2.185

 Mol. C6AA /au·bohr⁶  :        137.589015
 Mol. C8AA /au·bohr⁸  :       3257.215431
 Mol. α(0) /au        :         18.070832


Wiberg/Mayer (AO) data.
largest (>0.10) Wiberg bond orders for each atom

 ---------------------------------------------------------------------------
     #   Z sym  total        # sym  WBO       # sym  WBO       # sym  WBO
 ---------------------------------------------------------------------------
     1   6 C    3.933 --     2 N    2.985     3 H    0.948
     2   7 N    3.030 --     1 C    2.985
     3   1 H    0.993 --     1 C    0.948
 ---------------------------------------------------------------------------

Topologies differ in total number of bonds
Writing topology from bond orders to xtbtopo.mol

molecular dipole:
                 x           y           z       tot (Debye)
 q only:       -0.486       0.136      -0.000
   full:       -0.993       0.278      -0.000       2.621
molecular quadrupole (traceless):
                xx          xy          yy          xz          yz          zz
 q only:       -0.311       0.136       0.136      -0.000       0.000       0.174
  q+dip:        0.365      -0.160      -0.160      -0.000       0.000      -0.205
   full:       -1.327       0.581       0.582      -0.000       0.000       0.745

           -------------------------------------------------
          |                Geometry Summary                 |
           -------------------------------------------------

      molecular mass/u    :       27.0253799
   center of mass at/Å    :        0.5042992      -0.1413386       0.0000000
  moments of inertia/u·Å² :        0.4119364E-09   0.1107559E+02   0.1107559E+02
rotational constants/cm⁻¹ :        0.4092290E+11   0.1522053E+01   0.1522053E+01

 * 1 selected distances

     #   Z          #   Z                                           value/Å
     1   6 C        2   7 N                                       1.1375022 (max)

 * 1 distinct bonds (by element types)

   Z      Z             #   av. dist./Å        max./Å        min./Å
   6 C    7 N           1     1.1375022     1.1375022     1.1375022


optimized geometry written to: xtbopt.xyz


           -------------------------------------------------
          | TOTAL ENERGY               -5.504066173989 Eh   |
          | GRADIENT NORM               0.000525365326 Eh/α |
          | HOMO-LUMO GAP               5.951350186972 eV   |
           -------------------------------------------------
########################################################################
[WARNING] Runtime exception occurred
-2- restart_readRestart: Dimension missmatch in restart file.
-1- restart_readRestart: Number of electron missmatch in restart file.
########################################################################

------------------------------------------------------------------------
 * finished run on 2024/09/04 at 10:17:53.955     
------------------------------------------------------------------------
 total:
 * wall-time:     0 d,  0 h,  0 min,  0.190 sec
 *  cpu-time:     0 d,  0 h,  0 min,  1.412 sec
 * ratio c/w:     7.449 speedup
 SCF:
 * wall-time:     0 d,  0 h,  0 min,  0.003 sec
 *  cpu-time:     0 d,  0 h,  0 min,  0.022 sec
 * ratio c/w:     7.504 speedup
 ANC optimizer:
 * wall-time:     0 d,  0 h,  0 min,  0.006 sec
 *  cpu-time:     0 d,  0 h,  0 min,  0.039 sec
 * ratio c/w:     6.432 speedup

