      -----------------------------------------------------------      
     |                   =====================                   |     
     |                           x T B                           |     
     |                   =====================                   |     
     |                         S. Grimme                         |     
     |          Mulliken Center for Theoretical Chemistry        |     
     |                    University of Bonn                     |     
      -----------------------------------------------------------      

   * xtb version 6.6.0 (conda-forge) compiled by 'runner@Mac-1676020848589.local' on 2023-02-10

   xtb is free software: you can redistribute it and/or modify it under
   the terms of the GNU Lesser General Public License as published by
   the Free Software Foundation, either version 3 of the License, or
   (at your option) any later version.
   
   xtb is distributed in the hope that it will be useful,
   but WITHOUT ANY WARRANTY; without even the implied warranty of
   MERCHANTABILITY or FITNESS FOR A PARTICULAR PURPOSE.  See the
   GNU Lesser General Public License for more details.
   
   Cite this work as:
   * C. Bannwarth, E. Caldeweyher, S. Ehlert, A. Hansen, P. Pracht,
     J. Seibert, S. Spicher, S. Grimme, WIREs Comput. Mol. Sci., 2020, 11,
     e01493. DOI: 10.1002/wcms.1493
   
   for GFN2-xTB:
   * C. Bannwarth, S. Ehlert and S. Grimme., J. Chem. Theory Comput., 2019,
     15, 1652-1671. DOI: 10.1021/acs.jctc.8b01176
   for GFN1-xTB:
   * S. Grimme, C. Bannwarth, P. Shushkov, J. Chem. Theory Comput., 2017,
     13, 1989-2009. DOI: 10.1021/acs.jctc.7b00118
   for GFN0-xTB:
   * P. Pracht, E. Caldeweyher, S. Ehlert, S. Grimme, ChemRxiv, 2019, preprint.
     DOI: 10.26434/chemrxiv.8326202.v1
   for GFN-FF:
   * S. Spicher and S. Grimme, Angew. Chem. Int. Ed., 2020, 59, 15665-15673.
     DOI: 10.1002/anie.202004239
   
   for ALPB and GBSA implicit solvation:
   * S. Ehlert, M. Stahn, S. Spicher, S. Grimme, J. Chem. Theory Comput.,
     2021, 17, 4250-4261. DOI: 10.1021/acs.jctc.1c00471
   
   for DFT-D4:
   * E. Caldeweyher, C. Bannwarth and S. Grimme, J. Chem. Phys., 2017,
     147, 034112. DOI: 10.1063/1.4993215
   * E. Caldeweyher, S. Ehlert, A. Hansen, H. Neugebauer, S. Spicher,
     C. Bannwarth and S. Grimme, J. Chem. Phys., 2019, 150, 154122.
     DOI: 10.1063/1.5090222
   * E. Caldeweyher, J.-M. Mewes, S. Ehlert and S. Grimme, Phys. Chem. Chem. Phys.
     2020, 22, 8499-8512. DOI: 10.1039/D0CP00502A
   
   for sTDA-xTB:
   * S. Grimme and C. Bannwarth, J. Chem. Phys., 2016, 145, 054103.
     DOI: 10.1063/1.4959605
   
   in the mass-spec context:
   * V. Asgeirsson, C. Bauer and S. Grimme, Chem. Sci., 2017, 8, 4879.
     DOI: 10.1039/c7sc00601b
   * J. Koopman and S. Grimme, ACS Omega 2019, 4, 12, 15120-15133.
     DOI: 10.1021/acsomega.9b02011
   
   for metadynamics refer to:
   * S. Grimme, J. Chem. Theory Comput., 2019, 155, 2847-2862
     DOI: 10.1021/acs.jctc.9b00143
   
   for SPH calculations refer to:
   * S. Spicher and S. Grimme, J. Chem. Theory Comput., 2021, 17, 1701-1714
     DOI: 10.1021/acs.jctc.0c01306
   
   with help from (in alphabetical order)
   P. Atkinson, C. Bannwarth, F. Bohle, G. Brandenburg, E. Caldeweyher
   M. Checinski, S. Dohm, S. Ehlert, S. Ehrlich, I. Gerasimov, C. Hölzer
   A. Katbashev, J. Koopman, C. Lavigne, S. Lehtola, F. März, M. Müller,
   F. Musil, H. Neugebauer, J. Pisarek, C. Plett, P. Pracht, F. Pultar,
   J. Seibert, P. Shushkov, S. Spicher, M. Stahn, M. Steiner, T. Strunk,
   J. Stückrath, T. Rose, and J. Unsleber
   
 * started run on 2024/09/04 at 23:56:42.496     

           -------------------------------------------------
          |                Calculation Setup                |
           -------------------------------------------------

          program call               : xtb xtbopt.xyz --gfn1 --chrg 0 --hess
          coordinate file            : xtbopt.xyz
          omp threads                :                     8

   ID    Z sym.   atoms
    1    6 C      1-5
    2    1 H      6-17
########################################################################
[WARNING] Please study the warnings concerning your input carefully
-1- prog_main_parseArguments: The use of '--gfn1' is discouraged, please use '--gfn 1' next time
########################################################################

           -------------------------------------------------
          |                 G F N 1 - x T B                 |
           -------------------------------------------------

        Reference                      10.1021/acs.jctc.7b00118
      * Hamiltonian:
        H0-scaling (s, p, d)           1.850000    2.250000    2.000000
        zeta-weighting                 0.000000
      * Dispersion:
        s8                             2.400000
        a1                             0.630000
        a2                             5.000000
        s9                             0.000000
      * Repulsion:
        kExp                           1.500000
        rExp                           1.000000
      * Coulomb:
        alpha                          2.000000
        third order                    atomic
        anisotropic                    false
      * Halogen bond correction:
        rad-scale                      1.300000
        damping                        0.440000

q/qsh data taken from xtbrestart

          ...................................................
          :                      SETUP                      :
          :.................................................:
          :  # basis functions                  44          :
          :  # atomic orbitals                  44          :
          :  # shells                           34          :
          :  # electrons                        32          :
          :  # halogen bonds                     0          :
          :  max. iterations                   250          :
          :  Hamiltonian                  GFN1-xTB          :
          :  restarted?                       true          :
          :  GBSA solvation                  false          :
          :  PC potential                    false          :
          :  electronic temp.          300.0000000     K    :
          :  accuracy                    1.0000000          :
          :  -> integral cutoff          0.2500000E+02      :
          :  -> integral neglect         0.1000000E-07      :
          :  -> SCF convergence          0.1000000E-05 Eh   :
          :  -> wf. convergence          0.2000000E-04 e    :
          :  Broyden damping             0.4000000          :
          ...................................................

 iter      E             dE          RMSdq      gap      omega  full diag
   1    -17.3027419 -0.173027E+02  0.444E-09    9.03       0.0  T
   2    -17.3027419  0.106581E-13  0.262E-09    9.03  100000.0  T
   3    -17.3027419  0.355271E-14  0.278E-10    9.03  100000.0  T

   *** convergence criteria satisfied after 3 iterations ***

         #    Occupation            Energy/Eh            Energy/eV
      -------------------------------------------------------------
         1        2.0000           -0.6566538             -17.8685
       ...           ...                  ...                  ...
        10        2.0000           -0.5140276             -13.9874
        11        2.0000           -0.5046707             -13.7328
        12        2.0000           -0.4887109             -13.2985
        13        2.0000           -0.4771298             -12.9834
        14        2.0000           -0.4699698             -12.7885
        15        2.0000           -0.4656095             -12.6699
        16        2.0000           -0.4640386             -12.6271 (HOMO)
        17                         -0.1320286              -3.5927 (LUMO)
        18                         -0.1252605              -3.4085
        19                         -0.1098833              -2.9901
        20                         -0.0981425              -2.6706
        21                         -0.0944915              -2.5712
       ...                                ...                  ...
        44                          0.4734149              12.8823
      -------------------------------------------------------------
                  HL-Gap            0.3320101 Eh            9.0345 eV
             Fermi-level           -0.2980336 Eh           -8.1099 eV

 SCC (total)                   0 d,  0 h,  0 min,  0.010 sec
 SCC setup                      ...        0 min,  0.001 sec (  8.386%)
 Dispersion                     ...        0 min,  0.000 sec (  1.541%)
 classical contributions        ...        0 min,  0.000 sec (  0.432%)
 integral evaluation            ...        0 min,  0.001 sec ( 10.037%)
 iterations                     ...        0 min,  0.006 sec ( 58.112%)
 molecular gradient             ...        0 min,  0.002 sec ( 18.401%)
 printout                       ...        0 min,  0.000 sec (  2.890%)

         :::::::::::::::::::::::::::::::::::::::::::::::::::::
         ::                     SUMMARY                     ::
         :::::::::::::::::::::::::::::::::::::::::::::::::::::
         :: total energy             -17.064127001295 Eh    ::
         :: gradient norm              0.000476661053 Eh/a0 ::
         :: HOMO-LUMO gap              9.034453871443 eV    ::
         ::.................................................::
         :: SCC energy               -17.302741877000 Eh    ::
         :: -> electrostatic           0.000206032118 Eh    ::
         :: repulsion energy           0.243914297365 Eh    ::
         :: dispersion energy         -0.005299421660 Eh    ::
         :: halogen bond corr.         0.000000000000 Eh    ::
         :: add. restraining           0.000000000000 Eh    ::
         :: total charge               0.000000000000 e     ::
         :::::::::::::::::::::::::::::::::::::::::::::::::::::

           ------------------------------------------------- 
          |                Numerical Hessian                |
           ------------------------------------------------- 
step length          :   0.00500
SCC accuracy         :   0.30000
Hessian scale factor :   1.00000
frozen atoms in %    :   0.00000    0
RMS gradient         :   0.00048
estimated CPU  time      0.05 min
estimated wall time      0.01 min

writing file <hessian>.

 projected vibrational frequencies (cm⁻¹)
eigval :       -0.00    -0.00    -0.00     0.00     0.00     0.00
eigval :       91.00    92.60   178.70   204.81   207.46   389.62
eigval :      390.37   726.13   775.36   875.03   902.81   955.07
eigval :      986.78  1058.37  1076.03  1086.05  1147.34  1191.71
eigval :     1238.56  1271.83  1279.21  1280.82  1340.69  1374.78
eigval :     1395.72  1396.62  1466.83  1472.65  1480.59  1480.81
eigval :     1481.51  1487.39  1489.00  2998.78  3003.20  3005.81
eigval :     3015.29  3024.08  3029.77  3030.14  3031.56  3072.51
eigval :     3072.71  3075.14  3075.28
           -------------------------------------------------
          |                Property Printout                |
           -------------------------------------------------

    * Orbital Energies and Occupations

         #    Occupation            Energy/Eh            Energy/eV
      -------------------------------------------------------------
         1        2.0000           -0.6566538             -17.8685
       ...           ...                  ...                  ...
         4        2.0000           -0.6006383             -16.3442
         5        2.0000           -0.6006094             -16.3434
         6        2.0000           -0.5675004             -15.4425
         7        2.0000           -0.5426354             -14.7659
         8        2.0000           -0.5403193             -14.7028
         9        2.0000           -0.5202397             -14.1564
        10        2.0000           -0.5140276             -13.9874
        11        2.0000           -0.5046707             -13.7328
        12        2.0000           -0.4887109             -13.2985
        13        2.0000           -0.4771298             -12.9834
        14        2.0000           -0.4699698             -12.7885
        15        2.0000           -0.4656095             -12.6699
        16        2.0000           -0.4640386             -12.6271 (HOMO)
        17                         -0.1320286              -3.5927 (LUMO)
        18                         -0.1252605              -3.4085
        19                         -0.1098833              -2.9901
        20                         -0.0981425              -2.6706
        21                         -0.0944915              -2.5712
        22                         -0.0851771              -2.3178
        23                         -0.0682259              -1.8565
        24                         -0.0553688              -1.5067
        25                         -0.0530956              -1.4448
        26                         -0.0454876              -1.2378
        27                         -0.0321485              -0.8748
       ...                                ...                  ...
        44                          0.4734149              12.8823
      -------------------------------------------------------------
                  HL-Gap            0.3320101 Eh            9.0345 eV
             Fermi-level           -0.2980336 Eh           -8.1099 eV

  Mulliken/CM5 charges         n(s)   n(p)   n(d)
     1C    -0.08488 -0.23634   1.007  3.078  0.000
     2C    -0.03946 -0.15216   1.028  3.011  0.000
     3C    -0.04862 -0.15964   1.032  3.016  0.000
     4C    -0.03946 -0.15216   1.028  3.011  0.000
     5C    -0.08488 -0.23634   1.007  3.078  0.000
     6H     0.02717  0.07891   0.973  0.000  0.000
     7H     0.02845  0.07966   0.972  0.000  0.000
     8H     0.02717  0.07891   0.973  0.000  0.000
     9H     0.02171  0.07647   0.978  0.000  0.000
    10H     0.02171  0.07647   0.978  0.000  0.000
    11H     0.02245  0.07790   0.978  0.000  0.000
    12H     0.02245  0.07790   0.978  0.000  0.000
    13H     0.02171  0.07647   0.978  0.000  0.000
    14H     0.02171  0.07647   0.978  0.000  0.000
    15H     0.02845  0.07966   0.972  0.000  0.000
    16H     0.02717  0.07891   0.973  0.000  0.000
    17H     0.02717  0.07891   0.973  0.000  0.000

Wiberg/Mayer (AO) data.
largest (>0.10) Wiberg bond orders for each atom

 ---------------------------------------------------------------------------
     #   Z sym  total        # sym  WBO       # sym  WBO       # sym  WBO
 ---------------------------------------------------------------------------
     1   6 C    3.997 --     2 C    1.017     6 H    0.988     8 H    0.988
                             7 H    0.987
     2   6 C    3.998 --     1 C    1.017     3 C    1.006     9 H    0.980
                            10 H    0.980
     3   6 C    3.998 --     2 C    1.006     4 C    1.006    11 H    0.980
                            12 H    0.980
     4   6 C    3.998 --     5 C    1.017     3 C    1.006    14 H    0.980
                            13 H    0.980
     5   6 C    3.997 --     4 C    1.017    16 H    0.988    17 H    0.988
                            15 H    0.987
     6   1 H    1.005 --     1 C    0.988
     7   1 H    1.005 --     1 C    0.987
     8   1 H    1.005 --     1 C    0.988
     9   1 H    1.006 --     2 C    0.980
    10   1 H    1.006 --     2 C    0.980
    11   1 H    1.006 --     3 C    0.980
    12   1 H    1.006 --     3 C    0.980
    13   1 H    1.006 --     4 C    0.980
    14   1 H    1.006 --     4 C    0.980
    15   1 H    1.005 --     5 C    0.987
    16   1 H    1.005 --     5 C    0.988
    17   1 H    1.005 --     5 C    0.988
 ---------------------------------------------------------------------------

Topologies differ in total number of bonds
Writing topology from bond orders to xtbtopo.mol

 dipole moment from electron density (au)
     X       Y       Z   
   0.0007   0.0024   0.0095  total (Debye):    0.025

           -------------------------------------------------
          |               Frequency Printout                |
           -------------------------------------------------
 projected vibrational frequencies (cm⁻¹)
eigval :       -0.00    -0.00    -0.00     0.00     0.00     0.00
eigval :       91.00    92.60   178.70   204.81   207.46   389.62
Molecule has the following symmetry elements: (C2) 2*(sigma) 
It seems to be the C2v point group
eigval :      390.37   726.13   775.36   875.03   902.81   955.07
eigval :      986.78  1058.37  1076.03  1086.05  1147.34  1191.71
eigval :     1238.56  1271.83  1279.21  1280.82  1340.69  1374.78
eigval :     1395.72  1396.62  1466.83  1472.65  1480.59  1480.81
eigval :     1481.51  1487.39  1489.00  2998.78  3003.20  3005.81
eigval :     3015.29  3024.08  3029.77  3030.14  3031.56  3072.51
eigval :     3072.71  3075.14  3075.28
 reduced masses (amu)
   1:  9.35   2:  8.72   3:  8.21   4:  9.26   5:  9.88   6:  8.49   7:  7.80   8:  5.32
   9:  8.31  10:  1.80  11:  2.39  12:  9.46  13:  8.07  14:  1.69  15:  2.18  16:  2.47
  17:  5.66  18:  5.80  19:  2.05  20:  7.71  21:  8.48  22:  6.59  23:  7.87  24:  6.26
  25:  3.85  26:  3.66  27:  2.52  28:  1.57  29:  4.76  30:  6.04  31:  3.49  32:  3.58
  33:  1.83  34:  1.74  35:  1.49  36:  1.49  37:  1.79  38:  1.83  39:  1.93  40:  1.50
  41:  1.52  42:  1.54  43:  1.95  44:  2.00  45:  1.27  46:  1.27  47:  2.05  48:  2.00
  49:  2.00  50:  1.99  51:  1.99
 IR intensities (km·mol⁻¹)
   1:  0.00   2:  0.00   3:  0.00   4:  0.00   5:  0.00   6:  0.00   7:  0.02   8:  0.00
   9:  0.48  10:  0.02  11:  0.00  12:  0.04  13:  0.01  14: 22.85  15:  0.00  16:  5.85
  17:  6.41  18: 10.35  19:  0.00  20:  5.16  21:  0.04  22:  3.89  23:  5.06  24:  2.19
  25:  0.00  26:  1.29  27:  0.27  28:  0.00  29:  1.26  30:  0.54  31: 14.38  32:  6.38
  33:  0.10  34:  1.67  35: 16.92  36:  0.01  37:  0.05  38:  3.09  39: 22.56  40:  0.73
  41:  0.03  42: 64.66  43:  0.16  44:  0.00  45: 18.85  46: 11.14  47: 70.15  48:  0.02
  49: 55.81  50: 13.83  51: 31.15
 Raman intensities (amu)
   1:  0.00   2:  0.00   3:  0.00   4:  0.00   5:  0.00   6:  0.00   7:  0.00   8:  0.00
   9:  0.00  10:  0.00  11:  0.00  12:  0.00  13:  0.00  14:  0.00  15:  0.00  16:  0.00
  17:  0.00  18:  0.00  19:  0.00  20:  0.00  21:  0.00  22:  0.00  23:  0.00  24:  0.00
  25:  0.00  26:  0.00  27:  0.00  28:  0.00  29:  0.00  30:  0.00  31:  0.00  32:  0.00
  33:  0.00  34:  0.00  35:  0.00  36:  0.00  37:  0.00  38:  0.00  39:  0.00  40:  0.00
  41:  0.00  42:  0.00  43:  0.00  44:  0.00  45:  0.00  46:  0.00  47:  0.00  48:  0.00
  49:  0.00  50:  0.00  51:  0.00
 output can be read by thermo (or use thermo option).
 writing <g98.out> molden fake output.
 recommended (thermochemical) frequency scaling factor: 1.0
           -------------------------------------------------
          |             Thermodynamic Functions             |
           -------------------------------------------------

c2v symmetry found (for desy threshold:  0.10E+00) used in thermo

          ...................................................
          :                      SETUP                      :
          :.................................................:
          :  # frequencies                          45      :
          :  # imaginary freq.                       0      :
          :  linear?                             false      :
          :  only rotor calc.                    false      :
          :  symmetry                              c2v      :
          :  rotational number                       2      :
          :  scaling factor                  1.0000000      :
          :  rotor cutoff                   50.0000000 cm⁻¹ :
          :  imag. cutoff                  -20.0000000 cm⁻¹ :
          :.................................................:

    mode    ω/cm⁻¹     T·S(HO)/kcal·mol⁻¹    T·S(FR)/kcal·mol⁻¹   T·S(vib)
   ------------------------------------------------------------------------
       1     91.00    -1.08483 ( 91.65%)    -0.87887 (  8.35%)    -1.06763
       2     92.60    -1.07463 ( 92.17%)    -0.87369 (  7.83%)    -1.05888
       3    178.70    -0.69825 ( 99.39%)    -0.67908 (  0.61%)    -0.69814
       4    204.81    -0.62296 ( 99.65%)    -0.63870 (  0.35%)    -0.62302
       5    207.46    -0.61596 ( 99.66%)    -0.63490 (  0.34%)    -0.61602
   ------------------------------------------------------------------------

   temp. (K)  partition function   enthalpy   heat capacity  entropy
                                   cal/mol     cal/K/mol   cal/K/mol   J/K/mol
 298.15  VIB   54.7                 2800.564     18.629     17.236
         ROT  0.551E+05              888.752      2.981     24.677
         INT  0.302E+07             3689.316     21.610     41.913
         TR   0.593E+27             1481.254      4.968     38.727
         TOT                        5170.5703    26.5777    80.6408   337.4010

       T/K    H(0)-H(T)+PV         H(T)/Eh          T*S/Eh         G(T)/Eh
   ------------------------------------------------------------------------
    298.15    0.823983E-02    0.167043E+00    0.383150E-01    0.128728E+00
   ------------------------------------------------------------------------

         :::::::::::::::::::::::::::::::::::::::::::::::::::::
         ::                  THERMODYNAMIC                  ::
         :::::::::::::::::::::::::::::::::::::::::::::::::::::
         :: total free energy         -16.935399083920 Eh   ::
         ::.................................................::
         :: total energy              -17.064127001295 Eh   ::
         :: zero point energy           0.158803124034 Eh   ::
         :: G(RRHO) w/o ZPVE           -0.030075206659 Eh   ::
         :: G(RRHO) contrib.            0.128727917374 Eh   ::
         :::::::::::::::::::::::::::::::::::::::::::::::::::::

           -------------------------------------------------
          | TOTAL ENERGY              -17.064127001295 Eh   |
          | TOTAL ENTHALPY            -16.897084049017 Eh   |
          | TOTAL FREE ENERGY         -16.935399083920 Eh   |
          | GRADIENT NORM               0.000476661054 Eh/α |
          | HOMO-LUMO GAP               9.034453871441 eV   |
           -------------------------------------------------

------------------------------------------------------------------------
 * finished run on 2024/09/04 at 23:56:43.022     
------------------------------------------------------------------------
 total:
 * wall-time:     0 d,  0 h,  0 min,  0.525 sec
 *  cpu-time:     0 d,  0 h,  0 min,  3.535 sec
 * ratio c/w:     6.730 speedup
 SCF:
 * wall-time:     0 d,  0 h,  0 min,  0.010 sec
 *  cpu-time:     0 d,  0 h,  0 min,  0.063 sec
 * ratio c/w:     6.253 speedup
 analytical hessian:
 * wall-time:     0 d,  0 h,  0 min,  0.242 sec
 *  cpu-time:     0 d,  0 h,  0 min,  1.822 sec
 * ratio c/w:     7.542 speedup

