      -----------------------------------------------------------      
     |                   =====================                   |     
     |                           x T B                           |     
     |                   =====================                   |     
     |                         S. Grimme                         |     
     |          Mulliken Center for Theoretical Chemistry        |     
     |                    University of Bonn                     |     
      -----------------------------------------------------------      

   * xtb version 6.6.0 (conda-forge) compiled by 'runner@Mac-1676020848589.local' on 2023-02-10

   xtb is free software: you can redistribute it and/or modify it under
   the terms of the GNU Lesser General Public License as published by
   the Free Software Foundation, either version 3 of the License, or
   (at your option) any later version.
   
   xtb is distributed in the hope that it will be useful,
   but WITHOUT ANY WARRANTY; without even the implied warranty of
   MERCHANTABILITY or FITNESS FOR A PARTICULAR PURPOSE.  See the
   GNU Lesser General Public License for more details.
   
   Cite this work as:
   * C. Bannwarth, E. Caldeweyher, S. Ehlert, A. Hansen, P. Pracht,
     J. Seibert, S. Spicher, S. Grimme, WIREs Comput. Mol. Sci., 2020, 11,
     e01493. DOI: 10.1002/wcms.1493
   
   for GFN2-xTB:
   * C. Bannwarth, S. Ehlert and S. Grimme., J. Chem. Theory Comput., 2019,
     15, 1652-1671. DOI: 10.1021/acs.jctc.8b01176
   for GFN1-xTB:
   * S. Grimme, C. Bannwarth, P. Shushkov, J. Chem. Theory Comput., 2017,
     13, 1989-2009. DOI: 10.1021/acs.jctc.7b00118
   for GFN0-xTB:
   * P. Pracht, E. Caldeweyher, S. Ehlert, S. Grimme, ChemRxiv, 2019, preprint.
     DOI: 10.26434/chemrxiv.8326202.v1
   for GFN-FF:
   * S. Spicher and S. Grimme, Angew. Chem. Int. Ed., 2020, 59, 15665-15673.
     DOI: 10.1002/anie.202004239
   
   for ALPB and GBSA implicit solvation:
   * S. Ehlert, M. Stahn, S. Spicher, S. Grimme, J. Chem. Theory Comput.,
     2021, 17, 4250-4261. DOI: 10.1021/acs.jctc.1c00471
   
   for DFT-D4:
   * E. Caldeweyher, C. Bannwarth and S. Grimme, J. Chem. Phys., 2017,
     147, 034112. DOI: 10.1063/1.4993215
   * E. Caldeweyher, S. Ehlert, A. Hansen, H. Neugebauer, S. Spicher,
     C. Bannwarth and S. Grimme, J. Chem. Phys., 2019, 150, 154122.
     DOI: 10.1063/1.5090222
   * E. Caldeweyher, J.-M. Mewes, S. Ehlert and S. Grimme, Phys. Chem. Chem. Phys.
     2020, 22, 8499-8512. DOI: 10.1039/D0CP00502A
   
   for sTDA-xTB:
   * S. Grimme and C. Bannwarth, J. Chem. Phys., 2016, 145, 054103.
     DOI: 10.1063/1.4959605
   
   in the mass-spec context:
   * V. Asgeirsson, C. Bauer and S. Grimme, Chem. Sci., 2017, 8, 4879.
     DOI: 10.1039/c7sc00601b
   * J. Koopman and S. Grimme, ACS Omega 2019, 4, 12, 15120-15133.
     DOI: 10.1021/acsomega.9b02011
   
   for metadynamics refer to:
   * S. Grimme, J. Chem. Theory Comput., 2019, 155, 2847-2862
     DOI: 10.1021/acs.jctc.9b00143
   
   for SPH calculations refer to:
   * S. Spicher and S. Grimme, J. Chem. Theory Comput., 2021, 17, 1701-1714
     DOI: 10.1021/acs.jctc.0c01306
   
   with help from (in alphabetical order)
   P. Atkinson, C. Bannwarth, F. Bohle, G. Brandenburg, E. Caldeweyher
   M. Checinski, S. Dohm, S. Ehlert, S. Ehrlich, I. Gerasimov, C. Hölzer
   A. Katbashev, J. Koopman, C. Lavigne, S. Lehtola, F. März, M. Müller,
   F. Musil, H. Neugebauer, J. Pisarek, C. Plett, P. Pracht, F. Pultar,
   J. Seibert, P. Shushkov, S. Spicher, M. Stahn, M. Steiner, T. Strunk,
   J. Stückrath, T. Rose, and J. Unsleber
   
 * started run on 2024/09/04 at 21:36:16.024     

           -------------------------------------------------
          |                Calculation Setup                |
           -------------------------------------------------

          program call               : xtb input_molecule.xyz --gfn2 --chrg 0 --opt
          coordinate file            : input_molecule.xyz
          omp threads                :                     8

   ID    Z sym.   atoms
    1    6 C      1-6
    2    1 H      7-12

           -------------------------------------------------
          |                 G F N 2 - x T B                 |
           -------------------------------------------------

        Reference                      10.1021/acs.jctc.8b01176
      * Hamiltonian:
        H0-scaling (s, p, d)           1.850000    2.230000    2.230000
        zeta-weighting                 0.500000
      * Dispersion:
        s8                             2.700000
        a1                             0.520000
        a2                             5.000000
        s9                             5.000000
      * Repulsion:
        kExp                           1.500000    1.000000
        rExp                           1.000000
      * Coulomb:
        alpha                          2.000000
        third order                    shell-resolved
        anisotropic                    true
        a3                             3.000000
        a5                             4.000000
        cn-shift                       1.200000
        cn-exp                         4.000000
        max-rad                        5.000000

q/qsh data taken from xtbrestart
CAMM data taken from xtbrestart

          ...................................................
          :                      SETUP                      :
          :.................................................:
          :  # basis functions                  30          :
          :  # atomic orbitals                  30          :
          :  # shells                           18          :
          :  # electrons                        30          :
          :  max. iterations                   250          :
          :  Hamiltonian                  GFN2-xTB          :
          :  restarted?                       true          :
          :  GBSA solvation                  false          :
          :  PC potential                    false          :
          :  electronic temp.          300.0000000     K    :
          :  accuracy                    1.0000000          :
          :  -> integral cutoff          0.2500000E+02      :
          :  -> integral neglect         0.1000000E-07      :
          :  -> SCF convergence          0.1000000E-05 Eh   :
          :  -> wf. convergence          0.1000000E-03 e    :
          :  Broyden damping             0.4000000          :
          ...................................................

 iter      E             dE          RMSdq      gap      omega  full diag
   1    -16.1703963 -0.161704E+02  0.222E+00    4.79       0.0  T
   2    -16.1745955 -0.419918E-02  0.127E+00    4.79       1.0  T
   3    -16.1750529 -0.457431E-03  0.271E-01    4.78       1.0  T
   4    -16.1751242 -0.712471E-04  0.585E-02    4.78       1.0  T
   5    -16.1751246 -0.441258E-06  0.823E-03    4.78       3.5  T
   6    -16.1751248 -0.216476E-06  0.197E-03    4.78      14.7  T
   7    -16.1751248 -0.642324E-08  0.118E-03    4.78      24.5  T
   8    -16.1751248 -0.244325E-08  0.118E-04    4.78     244.1  T
   9    -16.1751248 -0.264322E-11  0.640E-05    4.78     450.9  T

   *** convergence criteria satisfied after 9 iterations ***

         #    Occupation            Energy/Eh            Energy/eV
      -------------------------------------------------------------
         1        2.0000           -0.6374701             -17.3464
       ...           ...                  ...                  ...
         9        2.0000           -0.4754081             -12.9365
        10        2.0000           -0.4754042             -12.9364
        11        2.0000           -0.4704048             -12.8004
        12        2.0000           -0.4220814             -11.4854
        13        2.0000           -0.4220797             -11.4854
        14        2.0000           -0.4000781             -10.8867
        15        2.0000           -0.4000754             -10.8866 (HOMO)
        16                         -0.2243731              -6.1055 (LUMO)
        17                         -0.2243704              -6.1054
        18                         -0.0984631              -2.6793
        19                          0.1180778               3.2131
        20                          0.1238953               3.3714
       ...                                ...                  ...
        30                          0.6377528              17.3541
      -------------------------------------------------------------
                  HL-Gap            0.1757023 Eh            4.7811 eV
             Fermi-level           -0.3122242 Eh           -8.4961 eV

 SCC (total)                   0 d,  0 h,  0 min,  0.009 sec
 SCC setup                      ...        0 min,  0.001 sec (  9.281%)
 Dispersion                     ...        0 min,  0.000 sec (  1.672%)
 classical contributions        ...        0 min,  0.000 sec (  0.962%)
 integral evaluation            ...        0 min,  0.000 sec (  4.492%)
 iterations                     ...        0 min,  0.006 sec ( 71.325%)
 molecular gradient             ...        0 min,  0.001 sec (  9.030%)
 printout                       ...        0 min,  0.000 sec (  2.902%)

         :::::::::::::::::::::::::::::::::::::::::::::::::::::
         ::                     SUMMARY                     ::
         :::::::::::::::::::::::::::::::::::::::::::::::::::::
         :: total energy             -15.878382954953 Eh    ::
         :: gradient norm              0.032096786171 Eh/a0 ::
         :: HOMO-LUMO gap              4.781103161852 eV    ::
         ::.................................................::
         :: SCC energy               -16.175124824241 Eh    ::
         :: -> isotropic ES            0.000807253577 Eh    ::
         :: -> anisotropic ES          0.002703577618 Eh    ::
         :: -> anisotropic XC          0.013017872233 Eh    ::
         :: -> dispersion             -0.007977102552 Eh    ::
         :: repulsion energy           0.296734781376 Eh    ::
         :: add. restraining           0.000000000000 Eh    ::
         :: total charge              -0.000000000000 e     ::
         :::::::::::::::::::::::::::::::::::::::::::::::::::::

      ----------------------------------------------------------- 
     |                   =====================                   |
     |                        A N C O P T                        |
     |                   =====================                   |
     |               Approximate Normal Coordinate               |
     |                Rational Function Optimizer                |
      ----------------------------------------------------------- 

          ...................................................
          :                      SETUP                      :
          :.................................................:
          :   optimization level            normal          :
          :   max. optcycles                   200          :
          :   ANC micro-cycles                  20          :
          :   degrees of freedom                30          :
          :.................................................:
          :   RF solver                   davidson          :
          :   write xtbopt.log                true          :
          :   linear?                        false          :
          :   energy convergence         0.5000000E-05 Eh   :
          :   grad. convergence          0.1000000E-02 Eh/α :
          :   maxmium RF displ.          1.0000000          :
          :   Hlow (freq-cutoff)         0.1000000E-01      :
          :   Hmax (freq-cutoff)         5.0000000          :
          :   S6 in model hess.         20.0000000          :
          ...................................................

generating ANC from model Hessian ...
Using Lindh-Hessian (1995)
 Shifting diagonal of input Hessian by    0.0000000000000000     
 Lowest  eigenvalues of input Hessian
    0.000000    0.000000    0.000000    0.000000    0.000000    0.000000
    0.013707    0.013710    0.022854    0.024419    0.063245    0.063264
    0.092268    0.092290    0.096108    0.096124    0.097279    0.118120
 Highest eigenvalues
    1.326579    1.536339    1.536393    1.818444    1.925522    1.925531


........................................................................
.............................. CYCLE    1 ..............................
........................................................................

 iter      E             dE          RMSdq      gap      omega  full diag
   1    -16.1751248 -0.161751E+02  0.230E-06    4.78       0.0  T
   2    -16.1751248 -0.710543E-14  0.165E-06    4.78   17521.5  T
   3    -16.1751248 -0.497380E-13  0.299E-07    4.78   96502.9  T
     SCC iter.                  ...        0 min,  0.001 sec
     gradient                   ...        0 min,  0.001 sec
 * total energy  :   -15.8783830 Eh     change       -0.1174527E-10 Eh
   gradient norm :     0.0320975 Eh/α   predicted     0.0000000E+00 (-100.00%)
   displ. norm   :     0.0912474 α      lambda       -0.2211249E-02
   maximum displ.:     0.0889485 α      in ANC's #17, #24, #16, ...

........................................................................
.............................. CYCLE    2 ..............................
........................................................................

 iter      E             dE          RMSdq      gap      omega  full diag
   1    -16.1945724 -0.161946E+02  0.145E-01    4.91       0.0  T
   2    -16.1945749 -0.251569E-05  0.861E-02    4.92       1.0  T
   3    -16.1945751 -0.188179E-06  0.545E-03    4.92       5.3  T
   4    -16.1945751 -0.672632E-07  0.158E-03    4.92      18.2  T
   5    -16.1945751 -0.923031E-10  0.500E-05    4.92     577.8  T
   6    -16.1945751 -0.363798E-11  0.240E-05    4.92    1204.4  T
     SCC iter.                  ...        0 min,  0.002 sec
     gradient                   ...        0 min,  0.001 sec
 * total energy  :   -15.8796244 Eh     change       -0.1241433E-02 Eh
   gradient norm :     0.0044768 Eh/α   predicted    -0.1114831E-02 ( -10.20%)
   displ. norm   :     0.0105625 α      lambda       -0.3321474E-04
   maximum displ.:     0.0099224 α      in ANC's #17, #24, #16, ...

........................................................................
.............................. CYCLE    3 ..............................
........................................................................

 iter      E             dE          RMSdq      gap      omega  full diag
   1    -16.1967290 -0.161967E+02  0.179E-02    4.93       0.0  T
   2    -16.1967291 -0.771130E-07  0.107E-02    4.93       2.7  T
   3    -16.1967291 -0.275433E-08  0.959E-04    4.93      30.1  T
   4    -16.1967291 -0.198528E-08  0.183E-04    4.93     157.4  T
     SCC iter.                  ...        0 min,  0.002 sec
     gradient                   ...        0 min,  0.001 sec
 * total energy  :   -15.8796406 Eh     change       -0.1618266E-04 Eh
   gradient norm :     0.0002411 Eh/α   predicted    -0.1660999E-04 (   2.64%)
   displ. norm   :     0.0011019 α      lambda       -0.1411746E-06
   maximum displ.:     0.0010813 α      in ANC's #17, #24, #4, ...

........................................................................
.............................. CYCLE    4 ..............................
........................................................................

 iter      E             dE          RMSdq      gap      omega  full diag
   1    -16.1965051 -0.161965E+02  0.148E-03    4.93       0.0  T
   2    -16.1965051 -0.297781E-09  0.882E-04    4.93      32.7  T
   3    -16.1965051 -0.151488E-10  0.681E-05    4.93     424.2  T
     SCC iter.                  ...        0 min,  0.001 sec
     gradient                   ...        0 min,  0.001 sec
 * total energy  :   -15.8796407 Eh     change       -0.8175196E-07 Eh
   gradient norm :     0.0000451 Eh/α   predicted    -0.6980491E-07 ( -14.61%)
   displ. norm   :     0.0002416 α      lambda       -0.4375246E-08
   maximum displ.:     0.0002392 α      in ANC's #17, #24, #6, ...

   *** GEOMETRY OPTIMIZATION CONVERGED AFTER 4 ITERATIONS ***

------------------------------------------------------------------------
 total energy gain   :        -0.0012577 Eh       -0.7892 kcal/mol
 total RMSD          :         0.0290798 a0        0.0154 Å
 total power (kW/mol):        -0.8255211 (step) -212.3508 (real)
------------------------------------------------------------------------

 ANCopt (total)                0 d,  0 h,  0 min,  0.016 sec
 optimizer setup                ...        0 min,  0.000 sec (  0.765%)
 model hessian                  ...        0 min,  0.002 sec ( 15.517%)
 ANC generation                 ...        0 min,  0.000 sec (  2.314%)
 coordinate transformation      ...        0 min,  0.000 sec (  0.129%)
 single point calculation       ...        0 min,  0.011 sec ( 69.228%)
 optimization log               ...        0 min,  0.000 sec (  2.501%)
 hessian update                 ...        0 min,  0.000 sec (  0.392%)
 rational function              ...        0 min,  0.001 sec (  6.754%)

================
 final structure:
================
12
 xtb: 6.6.0 (conda-forge)
C           -1.36385250163524        0.23503464387376        0.04251869844065
C           -0.88524133659616       -1.06418052609368        0.03180781384590
C            0.47861170451333       -1.29921523595042       -0.01071354859171
C            1.36385250162846       -0.23503464401224       -0.04251869844037
C            0.88524133669627        1.06418052599050       -0.03180781384895
C           -0.47861170451364        1.29921523595643        0.01071354859146
H           -2.42813981533285        0.41844315354299        0.07569957653627
H           -1.57604107321656       -1.89461821909648        0.05662556206019
H            0.85209840268135       -2.31306169190016       -0.01908116915893
H            2.42813981542892       -0.41844315329676       -0.07569957654067
H            1.57604107297857        1.89461821923180       -0.05662556205214
H           -0.85209840263245        2.31306169175427        0.01908116915831

 Bond Distances (Angstroems)
 ---------------------------
C1-C2=1.3846         C1-C6=1.3846         C1-H7=1.0805         C2-C1=1.3846         C2-C3=1.3846         C2-H8=1.0805         
C3-C2=1.3846         C3-C4=1.3846         C3-H9=1.0805         C4-C3=1.3846         C4-C5=1.3846         C4-H10=1.0805        
C5-C4=1.3846         C5-C6=1.3846         C5-H11=1.0805        C6-C1=1.3846         C6-C5=1.3846         C6-H12=1.0805        
H7-C1=1.0805         H8-C2=1.0805         H9-C3=1.0805         H10-C4=1.0805        H11-C5=1.0805        H12-C6=1.0805        
 C  H  Rav=1.0805 sigma=0.0000  Rmin=1.0805  Rmax=1.0805     6
 C  C  Rav=1.3846 sigma=0.0000  Rmin=1.3846  Rmax=1.3846     6

 selected bond angles (degree)
 --------------------
C6-C1-C2=120.00                H7-C1-C2=120.00                H7-C1-C6=120.00                C3-C2-C1=120.00                
H8-C2-C1=120.00                H8-C2-C3=120.00                C4-C3-C2=120.00                H9-C3-C2=120.00                
H9-C3-C4=120.00                C5-C4-C3=120.00                H10-C4-C3=120.00               H10-C4-C5=120.00               
C6-C5-C4=120.00                H11-C5-C4=120.00               H11-C5-C6=120.00               C5-C6-C1=120.00                
H12-C6-C1=120.00               H12-C6-C5=120.00               

 selected dihedral angles (degree)
 ---------------------------------
C3-C2-C1-C6=  0.00            C3-C2-C1-H7=180.00            H8-C2-C1-C6=180.00            H8-C2-C1-H7=  0.00            
C4-C3-C2-C1=  0.00            C4-C3-C2-H8=180.00            H9-C3-C2-C1=180.00            H9-C3-C2-H8=  0.00            
C5-C4-C3-C2=  0.00            C5-C4-C3-H9=180.00            H10-C4-C3-C2=180.00           H10-C4-C3-H9=  0.00           
C6-C5-C4-C3=  0.00            C6-C5-C4-H10=180.00           H11-C5-C4-C3=180.00           H11-C5-C4-H10=  0.00          
C5-C6-C1-C2=  0.00            C5-C6-C1-H7=180.00            H12-C6-C1-C2=180.00           H12-C6-C1-H7=  0.00           
C1-C6-C5-C4=  0.00            C1-C6-C5-H11=180.00           H12-C6-C5-C4=180.00           H12-C6-C5-H11=  0.00          
           -------------------------------------------------
          |                Final Singlepoint                |
           -------------------------------------------------

          ...................................................
          :                      SETUP                      :
          :.................................................:
          :  # basis functions                  30          :
          :  # atomic orbitals                  30          :
          :  # shells                           18          :
          :  # electrons                        30          :
          :  max. iterations                   250          :
          :  Hamiltonian                  GFN2-xTB          :
          :  restarted?                      false          :
          :  GBSA solvation                  false          :
          :  PC potential                    false          :
          :  electronic temp.          300.0000000     K    :
          :  accuracy                    1.0000000          :
          :  -> integral cutoff          0.2500000E+02      :
          :  -> integral neglect         0.1000000E-07      :
          :  -> SCF convergence          0.1000000E-05 Eh   :
          :  -> wf. convergence          0.1000000E-03 e    :
          :  Broyden damping             0.4000000          :
          ...................................................

 iter      E             dE          RMSdq      gap      omega  full diag
   1    -16.1965051 -0.161965E+02  0.314E-05    4.93       0.0  T
   2    -16.1965051 -0.442668E-11  0.176E-05    4.93    1643.6  T
   3    -16.1965051 -0.144595E-11  0.939E-06    4.93    3075.3  T

   *** convergence criteria satisfied after 3 iterations ***

         #    Occupation            Energy/Eh            Energy/eV
      -------------------------------------------------------------
         1        2.0000           -0.6416529             -17.4603
       ...           ...                  ...                  ...
         9        2.0000           -0.4763493             -12.9621
        10        2.0000           -0.4763493             -12.9621
        11        2.0000           -0.4747524             -12.9187
        12        2.0000           -0.4213980             -11.4668
        13        2.0000           -0.4213978             -11.4668
        14        2.0000           -0.4025243             -10.9532
        15        2.0000           -0.4025242             -10.9532 (HOMO)
        16                         -0.2211993              -6.0191 (LUMO)
        17                         -0.2211992              -6.0191
        18                         -0.0899306              -2.4471
        19                          0.1179756               3.2103
        20                          0.1376651               3.7461
       ...                                ...                  ...
        30                          0.6740585              18.3421
      -------------------------------------------------------------
                  HL-Gap            0.1813249 Eh            4.9341 eV
             Fermi-level           -0.3118618 Eh           -8.4862 eV

 SCC (total)                   0 d,  0 h,  0 min,  0.002 sec
 SCC setup                      ...        0 min,  0.000 sec (  2.393%)
 Dispersion                     ...        0 min,  0.000 sec (  1.798%)
 classical contributions        ...        0 min,  0.000 sec (  0.543%)
 integral evaluation            ...        0 min,  0.000 sec ( 15.783%)
 iterations                     ...        0 min,  0.001 sec ( 34.825%)
 molecular gradient             ...        0 min,  0.001 sec ( 36.895%)
 printout                       ...        0 min,  0.000 sec (  7.270%)

         :::::::::::::::::::::::::::::::::::::::::::::::::::::
         ::                     SUMMARY                     ::
         :::::::::::::::::::::::::::::::::::::::::::::::::::::
         :: total energy             -15.879640652475 Eh    ::
         :: gradient norm              0.000045284718 Eh/a0 ::
         :: HOMO-LUMO gap              4.934101102025 eV    ::
         ::.................................................::
         :: SCC energy               -16.196505098040 Eh    ::
         :: -> isotropic ES            0.000791222976 Eh    ::
         :: -> anisotropic ES          0.002518105252 Eh    ::
         :: -> anisotropic XC          0.012390441121 Eh    ::
         :: -> dispersion             -0.008019481724 Eh    ::
         :: repulsion energy           0.316857660948 Eh    ::
         :: add. restraining           0.000000000000 Eh    ::
         :: total charge               0.000000000000 e     ::
         :::::::::::::::::::::::::::::::::::::::::::::::::::::

           -------------------------------------------------
          |                Property Printout                |
           -------------------------------------------------

    * Orbital Energies and Occupations

         #    Occupation            Energy/Eh            Energy/eV
      -------------------------------------------------------------
         1        2.0000           -0.6416529             -17.4603
       ...           ...                  ...                  ...
         3        2.0000           -0.6114898             -16.6395
         4        2.0000           -0.5690000             -15.4833
         5        2.0000           -0.5689999             -15.4833
         6        2.0000           -0.5311796             -14.4541
         7        2.0000           -0.4950011             -13.4697
         8        2.0000           -0.4894015             -13.3173
         9        2.0000           -0.4763493             -12.9621
        10        2.0000           -0.4763493             -12.9621
        11        2.0000           -0.4747524             -12.9187
        12        2.0000           -0.4213980             -11.4668
        13        2.0000           -0.4213978             -11.4668
        14        2.0000           -0.4025243             -10.9532
        15        2.0000           -0.4025242             -10.9532 (HOMO)
        16                         -0.2211993              -6.0191 (LUMO)
        17                         -0.2211992              -6.0191
        18                         -0.0899306              -2.4471
        19                          0.1179756               3.2103
        20                          0.1376651               3.7461
        21                          0.1734438               4.7196
        22                          0.1734441               4.7197
        23                          0.2026640               5.5148
        24                          0.2026640               5.5148
        25                          0.4132016              11.2438
        26                          0.4132019              11.2438
       ...                                ...                  ...
        30                          0.6740585              18.3421
      -------------------------------------------------------------
                  HL-Gap            0.1813249 Eh            4.9341 eV
             Fermi-level           -0.3118618 Eh           -8.4862 eV

     #   Z          covCN         q      C6AA      α(0)
     1   6 C        2.920    -0.029    28.718     8.788
     2   6 C        2.920    -0.029    28.718     8.788
     3   6 C        2.920    -0.029    28.718     8.788
     4   6 C        2.920    -0.029    28.718     8.788
     5   6 C        2.920    -0.029    28.718     8.788
     6   6 C        2.920    -0.029    28.718     8.788
     7   1 H        0.926     0.029     2.605     2.524
     8   1 H        0.926     0.029     2.605     2.524
     9   1 H        0.926     0.029     2.605     2.524
    10   1 H        0.926     0.029     2.605     2.524
    11   1 H        0.926     0.029     2.605     2.524
    12   1 H        0.926     0.029     2.605     2.524

 Mol. C6AA /au·bohr⁶  :       1749.472530
 Mol. C8AA /au·bohr⁸  :      42661.695532
 Mol. α(0) /au        :         67.869887


Wiberg/Mayer (AO) data.
largest (>0.10) Wiberg bond orders for each atom

 ---------------------------------------------------------------------------
     #   Z sym  total        # sym  WBO       # sym  WBO       # sym  WBO
 ---------------------------------------------------------------------------
     1   6 C    3.993 --     6 C    1.441     2 C    1.441     7 H    0.972
                             4 C    0.114
     2   6 C    3.993 --     1 C    1.441     3 C    1.441     8 H    0.972
                             5 C    0.114
     3   6 C    3.993 --     4 C    1.441     2 C    1.441     9 H    0.972
                             6 C    0.114
     4   6 C    3.993 --     3 C    1.441     5 C    1.441    10 H    0.972
                             1 C    0.114
     5   6 C    3.993 --     4 C    1.441     6 C    1.441    11 H    0.972
                             2 C    0.114
     6   6 C    3.993 --     1 C    1.441     5 C    1.441    12 H    0.972
                             3 C    0.114
     7   1 H    0.999 --     1 C    0.972
     8   1 H    0.999 --     2 C    0.972
     9   1 H    0.999 --     3 C    0.972
    10   1 H    0.999 --     4 C    0.972
    11   1 H    0.999 --     5 C    0.972
    12   1 H    0.999 --     6 C    0.972
 ---------------------------------------------------------------------------

Topologies differ in total number of bonds
Writing topology from bond orders to xtbtopo.mol

molecular dipole:
                 x           y           z       tot (Debye)
 q only:        0.000      -0.000      -0.000
   full:        0.000      -0.000      -0.000       0.000
molecular quadrupole (traceless):
                xx          xy          yy          xz          yz          zz
 q only:        0.638      -0.000       0.640      -0.061      -0.007      -1.278
  q+dip:        2.661      -0.001       2.669      -0.254      -0.028      -5.329
   full:        1.330      -0.000       1.334      -0.127      -0.014      -2.664

           -------------------------------------------------
          |                Geometry Summary                 |
           -------------------------------------------------

      molecular mass/u    :       78.1120599
   center of mass at/Å    :        0.0000000      -0.0000000      -0.0000000
  moments of inertia/u·Å² :        0.8745375E+02   0.8745378E+02   0.1749075E+03
rotational constants/cm⁻¹ :        0.1927605E+00   0.1927605E+00   0.9638025E-01

 * 12 selected distances

     #   Z          #   Z                                           value/Å
     1   6 C        2   6 C                                       1.3846096
     2   6 C        3   6 C                                       1.3846100
     3   6 C        4   6 C                                       1.3846095
     4   6 C        5   6 C                                       1.3846096
     1   6 C        6   6 C                                       1.3846095
     5   6 C        6   6 C                                       1.3846100 (max)
     1   6 C        7   1 H                                       1.0804848
     2   6 C        8   1 H                                       1.0804847
     3   6 C        9   1 H                                       1.0804847
     4   6 C       10   1 H                                       1.0804848
     5   6 C       11   1 H                                       1.0804847 (min)
     6   6 C       12   1 H                                       1.0804847

 * 2 distinct bonds (by element types)

   Z      Z             #   av. dist./Å        max./Å        min./Å
   1 H    6 C           6     1.0804847     1.0804848     1.0804847
   6 C    6 C           6     1.3846097     1.3846100     1.3846095


optimized geometry written to: xtbopt.xyz


           -------------------------------------------------
          | TOTAL ENERGY              -15.879640652475 Eh   |
          | GRADIENT NORM               0.000045284718 Eh/α |
          | HOMO-LUMO GAP               4.934101102025 eV   |
           -------------------------------------------------

------------------------------------------------------------------------
 * finished run on 2024/09/04 at 21:36:16.347     
------------------------------------------------------------------------
 total:
 * wall-time:     0 d,  0 h,  0 min,  0.322 sec
 *  cpu-time:     0 d,  0 h,  0 min,  1.867 sec
 * ratio c/w:     5.789 speedup
 SCF:
 * wall-time:     0 d,  0 h,  0 min,  0.009 sec
 *  cpu-time:     0 d,  0 h,  0 min,  0.063 sec
 * ratio c/w:     7.122 speedup
 ANC optimizer:
 * wall-time:     0 d,  0 h,  0 min,  0.018 sec
 *  cpu-time:     0 d,  0 h,  0 min,  0.131 sec
 * ratio c/w:     7.175 speedup

