      -----------------------------------------------------------      
     |                   =====================                   |     
     |                           x T B                           |     
     |                   =====================                   |     
     |                         S. Grimme                         |     
     |          Mulliken Center for Theoretical Chemistry        |     
     |                    University of Bonn                     |     
      -----------------------------------------------------------      

   * xtb version 6.6.0 (conda-forge) compiled by 'runner@Mac-1676020848589.local' on 2023-02-10

   xtb is free software: you can redistribute it and/or modify it under
   the terms of the GNU Lesser General Public License as published by
   the Free Software Foundation, either version 3 of the License, or
   (at your option) any later version.
   
   xtb is distributed in the hope that it will be useful,
   but WITHOUT ANY WARRANTY; without even the implied warranty of
   MERCHANTABILITY or FITNESS FOR A PARTICULAR PURPOSE.  See the
   GNU Lesser General Public License for more details.
   
   Cite this work as:
   * C. Bannwarth, E. Caldeweyher, S. Ehlert, A. Hansen, P. Pracht,
     J. Seibert, S. Spicher, S. Grimme, WIREs Comput. Mol. Sci., 2020, 11,
     e01493. DOI: 10.1002/wcms.1493
   
   for GFN2-xTB:
   * C. Bannwarth, S. Ehlert and S. Grimme., J. Chem. Theory Comput., 2019,
     15, 1652-1671. DOI: 10.1021/acs.jctc.8b01176
   for GFN1-xTB:
   * S. Grimme, C. Bannwarth, P. Shushkov, J. Chem. Theory Comput., 2017,
     13, 1989-2009. DOI: 10.1021/acs.jctc.7b00118
   for GFN0-xTB:
   * P. Pracht, E. Caldeweyher, S. Ehlert, S. Grimme, ChemRxiv, 2019, preprint.
     DOI: 10.26434/chemrxiv.8326202.v1
   for GFN-FF:
   * S. Spicher and S. Grimme, Angew. Chem. Int. Ed., 2020, 59, 15665-15673.
     DOI: 10.1002/anie.202004239
   
   for ALPB and GBSA implicit solvation:
   * S. Ehlert, M. Stahn, S. Spicher, S. Grimme, J. Chem. Theory Comput.,
     2021, 17, 4250-4261. DOI: 10.1021/acs.jctc.1c00471
   
   for DFT-D4:
   * E. Caldeweyher, C. Bannwarth and S. Grimme, J. Chem. Phys., 2017,
     147, 034112. DOI: 10.1063/1.4993215
   * E. Caldeweyher, S. Ehlert, A. Hansen, H. Neugebauer, S. Spicher,
     C. Bannwarth and S. Grimme, J. Chem. Phys., 2019, 150, 154122.
     DOI: 10.1063/1.5090222
   * E. Caldeweyher, J.-M. Mewes, S. Ehlert and S. Grimme, Phys. Chem. Chem. Phys.
     2020, 22, 8499-8512. DOI: 10.1039/D0CP00502A
   
   for sTDA-xTB:
   * S. Grimme and C. Bannwarth, J. Chem. Phys., 2016, 145, 054103.
     DOI: 10.1063/1.4959605
   
   in the mass-spec context:
   * V. Asgeirsson, C. Bauer and S. Grimme, Chem. Sci., 2017, 8, 4879.
     DOI: 10.1039/c7sc00601b
   * J. Koopman and S. Grimme, ACS Omega 2019, 4, 12, 15120-15133.
     DOI: 10.1021/acsomega.9b02011
   
   for metadynamics refer to:
   * S. Grimme, J. Chem. Theory Comput., 2019, 155, 2847-2862
     DOI: 10.1021/acs.jctc.9b00143
   
   for SPH calculations refer to:
   * S. Spicher and S. Grimme, J. Chem. Theory Comput., 2021, 17, 1701-1714
     DOI: 10.1021/acs.jctc.0c01306
   
   with help from (in alphabetical order)
   P. Atkinson, C. Bannwarth, F. Bohle, G. Brandenburg, E. Caldeweyher
   M. Checinski, S. Dohm, S. Ehlert, S. Ehrlich, I. Gerasimov, C. Hölzer
   A. Katbashev, J. Koopman, C. Lavigne, S. Lehtola, F. März, M. Müller,
   F. Musil, H. Neugebauer, J. Pisarek, C. Plett, P. Pracht, F. Pultar,
   J. Seibert, P. Shushkov, S. Spicher, M. Stahn, M. Steiner, T. Strunk,
   J. Stückrath, T. Rose, and J. Unsleber
   
 * started run on 2024/09/04 at 21:16:03.389     

           -------------------------------------------------
          |                Calculation Setup                |
           -------------------------------------------------

          program call               : xtb input_molecule.xyz --gfn2 --chrg 0 --opt
          coordinate file            : input_molecule.xyz
          omp threads                :                     8

   ID    Z sym.   atoms
    1    6 C      1-4
    2    1 H      5-14

           -------------------------------------------------
          |                 G F N 2 - x T B                 |
           -------------------------------------------------

        Reference                      10.1021/acs.jctc.8b01176
      * Hamiltonian:
        H0-scaling (s, p, d)           1.850000    2.230000    2.230000
        zeta-weighting                 0.500000
      * Dispersion:
        s8                             2.700000
        a1                             0.520000
        a2                             5.000000
        s9                             5.000000
      * Repulsion:
        kExp                           1.500000    1.000000
        rExp                           1.000000
      * Coulomb:
        alpha                          2.000000
        third order                    shell-resolved
        anisotropic                    true
        a3                             3.000000
        a5                             4.000000
        cn-shift                       1.200000
        cn-exp                         4.000000
        max-rad                        5.000000

q/qsh data taken from xtbrestart
CAMM data taken from xtbrestart

          ...................................................
          :                      SETUP                      :
          :.................................................:
          :  # basis functions                  26          :
          :  # atomic orbitals                  26          :
          :  # shells                           18          :
          :  # electrons                        26          :
          :  max. iterations                   250          :
          :  Hamiltonian                  GFN2-xTB          :
          :  restarted?                       true          :
          :  GBSA solvation                  false          :
          :  PC potential                    false          :
          :  electronic temp.          300.0000000     K    :
          :  accuracy                    1.0000000          :
          :  -> integral cutoff          0.2500000E+02      :
          :  -> integral neglect         0.1000000E-07      :
          :  -> SCF convergence          0.1000000E-05 Eh   :
          :  -> wf. convergence          0.1000000E-03 e    :
          :  Broyden damping             0.4000000          :
          ...................................................

 iter      E             dE          RMSdq      gap      omega  full diag
   1    -13.8427179 -0.138427E+02  0.272E+00   14.04       0.0  T
   2    -13.8445330 -0.181506E-02  0.162E+00   14.00       1.0  T
   3    -13.8450760 -0.543068E-03  0.161E-01   13.97       1.0  T
   4    -13.8450820 -0.600345E-05  0.935E-02   13.97       1.0  T
   5    -13.8450819  0.162247E-06  0.125E-02   13.97       2.1  T
   6    -13.8450826 -0.698312E-06  0.244E-03   13.97      10.9  T
   7    -13.8450826 -0.357110E-08  0.555E-04   13.97      48.1  T
   8    -13.8450826 -0.940595E-09  0.211E-04   13.97     126.9  T

   *** convergence criteria satisfied after 8 iterations ***

         #    Occupation            Energy/Eh            Energy/eV
      -------------------------------------------------------------
         1        2.0000           -0.6157970             -16.7567
       ...           ...                  ...                  ...
         7        2.0000           -0.4842931             -13.1783
         8        2.0000           -0.4645751             -12.6417
         9        2.0000           -0.4610483             -12.5458
        10        2.0000           -0.4477317             -12.1834
        11        2.0000           -0.4260389             -11.5931
        12        2.0000           -0.4237737             -11.5315
        13        2.0000           -0.4210222             -11.4566 (HOMO)
        14                          0.0923644               2.5134 (LUMO)
        15                          0.0945328               2.5724
        16                          0.1092774               2.9736
        17                          0.1217595               3.3132
        18                          0.1265026               3.4423
       ...                                ...                  ...
        26                          0.2696181               7.3367
      -------------------------------------------------------------
                  HL-Gap            0.5133866 Eh           13.9700 eV
             Fermi-level           -0.1643289 Eh           -4.4716 eV

 SCC (total)                   0 d,  0 h,  0 min,  0.017 sec
 SCC setup                      ...        0 min,  0.003 sec ( 14.510%)
 Dispersion                     ...        0 min,  0.001 sec (  5.127%)
 classical contributions        ...        0 min,  0.000 sec (  2.056%)
 integral evaluation            ...        0 min,  0.002 sec (  8.849%)
 iterations                     ...        0 min,  0.010 sec ( 57.362%)
 molecular gradient             ...        0 min,  0.001 sec (  8.398%)
 printout                       ...        0 min,  0.001 sec (  3.572%)

         :::::::::::::::::::::::::::::::::::::::::::::::::::::
         ::                     SUMMARY                     ::
         :::::::::::::::::::::::::::::::::::::::::::::::::::::
         :: total energy             -13.661185154890 Eh    ::
         :: gradient norm              0.043865563736 Eh/a0 ::
         :: HOMO-LUMO gap             13.969959289589 eV    ::
         ::.................................................::
         :: SCC energy               -13.845082589666 Eh    ::
         :: -> isotropic ES            0.002597874184 Eh    ::
         :: -> anisotropic ES          0.005843426520 Eh    ::
         :: -> anisotropic XC          0.010205200695 Eh    ::
         :: -> dispersion             -0.006293625046 Eh    ::
         :: repulsion energy           0.183889972419 Eh    ::
         :: add. restraining           0.000000000000 Eh    ::
         :: total charge               0.000000000000 e     ::
         :::::::::::::::::::::::::::::::::::::::::::::::::::::

      ----------------------------------------------------------- 
     |                   =====================                   |
     |                        A N C O P T                        |
     |                   =====================                   |
     |               Approximate Normal Coordinate               |
     |                Rational Function Optimizer                |
      ----------------------------------------------------------- 

          ...................................................
          :                      SETUP                      :
          :.................................................:
          :   optimization level            normal          :
          :   max. optcycles                   200          :
          :   ANC micro-cycles                  20          :
          :   degrees of freedom                36          :
          :.................................................:
          :   RF solver                   davidson          :
          :   write xtbopt.log                true          :
          :   linear?                        false          :
          :   energy convergence         0.5000000E-05 Eh   :
          :   grad. convergence          0.1000000E-02 Eh/α :
          :   maxmium RF displ.          1.0000000          :
          :   Hlow (freq-cutoff)         0.1000000E-01      :
          :   Hmax (freq-cutoff)         5.0000000          :
          :   S6 in model hess.         20.0000000          :
          ...................................................

generating ANC from model Hessian ...
Using Lindh-Hessian (1995)
 Shifting diagonal of input Hessian by    6.4059547354035351E-003
 Lowest  eigenvalues of input Hessian
    0.000000    0.000000    0.000000    0.000000    0.000000    0.000000
    0.010000    0.012644    0.013284    0.019521    0.023057    0.041951
    0.046012    0.052627    0.052975    0.054898    0.055902    0.060141
 Highest eigenvalues
    1.044538    1.080993    1.085523    1.146735    1.180713    1.220358


........................................................................
.............................. CYCLE    1 ..............................
........................................................................

 iter      E             dE          RMSdq      gap      omega  full diag
   1    -13.8450826 -0.138451E+02  0.486E-05   13.97       0.0  T
   2    -13.8450826 -0.467004E-11  0.261E-05   13.97    1023.9  T
   3    -13.8450826 -0.184741E-12  0.106E-05   13.97    2512.1  T
     SCC iter.                  ...        0 min,  0.002 sec
     gradient                   ...        0 min,  0.001 sec
 * total energy  :   -13.6611852 Eh     change       -0.3246292E-10 Eh
   gradient norm :     0.0438656 Eh/α   predicted     0.0000000E+00 (-100.00%)
   displ. norm   :     0.1373895 α      lambda       -0.4961391E-02
   maximum displ.:     0.1136840 α      in ANC's #24, #9, #16, ...

........................................................................
.............................. CYCLE    2 ..............................
........................................................................

 iter      E             dE          RMSdq      gap      omega  full diag
   1    -13.8694983 -0.138695E+02  0.199E-01   14.11       0.0  T
   2    -13.8695515 -0.532184E-04  0.110E-01   14.12       1.0  T
   3    -13.8695535 -0.193675E-05  0.318E-02   14.12       1.0  T
   4    -13.8695537 -0.193915E-06  0.634E-03   14.12       4.2  T
   5    -13.8695537 -0.216976E-08  0.240E-03   14.12      11.1  T
   6    -13.8695537 -0.605285E-08  0.213E-04   14.12     125.3  T
   7    -13.8695537 -0.449774E-10  0.337E-05   14.12     793.9  T
     SCC iter.                  ...        0 min,  0.002 sec
     gradient                   ...        0 min,  0.001 sec
 * total energy  :   -13.6640177 Eh     change       -0.2832524E-02 Eh
   gradient norm :     0.0107082 Eh/α   predicted    -0.2527522E-02 ( -10.77%)
   displ. norm   :     0.0577015 α      lambda       -0.2937357E-03
   maximum displ.:     0.0336979 α      in ANC's #2, #10, #24, ...

........................................................................
.............................. CYCLE    3 ..............................
........................................................................

 iter      E             dE          RMSdq      gap      omega  full diag
   1    -13.8755813 -0.138756E+02  0.566E-02   14.27       0.0  T
   2    -13.8755852 -0.390872E-05  0.305E-02   14.27       1.0  T
   3    -13.8755853 -0.775987E-07  0.873E-03   14.28       3.1  T
   4    -13.8755853 -0.664471E-08  0.117E-03   14.28      22.8  T
   5    -13.8755853 -0.384830E-10  0.239E-04   14.28     111.8  T
   6    -13.8755853 -0.154063E-09  0.462E-05   14.28     577.9  T
     SCC iter.                  ...        0 min,  0.002 sec
     gradient                   ...        0 min,  0.001 sec
 * total energy  :   -13.6641558 Eh     change       -0.1381219E-03 Eh
   gradient norm :     0.0018497 Eh/α   predicted    -0.1473558E-03 (   6.69%)
   displ. norm   :     0.0387537 α      lambda       -0.1816846E-04
   maximum displ.:     0.0267991 α      in ANC's #2, #1, #4, ...

........................................................................
.............................. CYCLE    4 ..............................
........................................................................

 iter      E             dE          RMSdq      gap      omega  full diag
   1    -13.8750265 -0.138750E+02  0.220E-02   14.23       0.0  T
   2    -13.8750266 -0.615400E-07  0.130E-02   14.23       2.0  T
   3    -13.8750266 -0.280590E-08  0.102E-03   14.23      26.3  T
   4    -13.8750266 -0.599433E-08  0.361E-04   14.23      73.9  T
   5    -13.8750266 -0.617817E-10  0.613E-05   14.23     436.2  T
     SCC iter.                  ...        0 min,  0.001 sec
     gradient                   ...        0 min,  0.001 sec
 * total energy  :   -13.6641701 Eh     change       -0.1426997E-04 Eh
   gradient norm :     0.0006802 Eh/α   predicted    -0.9088503E-05 ( -36.31%)
   displ. norm   :     0.0316903 α      lambda       -0.5497423E-05
   maximum displ.:     0.0202190 α      in ANC's #2, #4, #1, ...

........................................................................
.............................. CYCLE    5 ..............................
........................................................................

 iter      E             dE          RMSdq      gap      omega  full diag
   1    -13.8748236 -0.138748E+02  0.123E-02   14.24       0.0  T
   2    -13.8748236 -0.773566E-08  0.733E-03   14.24       3.6  T
   3    -13.8748236 -0.190411E-08  0.371E-04   14.24      72.0  T
   4    -13.8748236 -0.387324E-09  0.182E-04   14.24     147.0  T
     SCC iter.                  ...        0 min,  0.001 sec
     gradient                   ...        0 min,  0.001 sec
 * total energy  :   -13.6641749 Eh     change       -0.4846099E-05 Eh
   gradient norm :     0.0007377 Eh/α   predicted    -0.2749256E-05 ( -43.27%)
   displ. norm   :     0.0234796 α      lambda       -0.2262875E-05
   maximum displ.:     0.0173801 α      in ANC's #4, #1, #2, ...

   *** GEOMETRY OPTIMIZATION CONVERGED AFTER 5 ITERATIONS ***

------------------------------------------------------------------------
 total energy gain   :        -0.0029898 Eh       -1.8761 kcal/mol
 total RMSD          :         0.0521315 a0        0.0276 Å
 total power (kW/mol):        -1.5699236 (step) -264.0210 (real)
------------------------------------------------------------------------

 ANCopt (total)                0 d,  0 h,  0 min,  0.030 sec
 optimizer setup                ...        0 min,  0.000 sec (  1.046%)
 model hessian                  ...        0 min,  0.010 sec ( 32.319%)
 ANC generation                 ...        0 min,  0.001 sec (  3.463%)
 coordinate transformation      ...        0 min,  0.000 sec (  0.081%)
 single point calculation       ...        0 min,  0.014 sec ( 45.954%)
 optimization log               ...        0 min,  0.001 sec (  1.947%)
 hessian update                 ...        0 min,  0.000 sec (  0.487%)
 rational function              ...        0 min,  0.004 sec ( 12.315%)

================
 final structure:
================
14
 xtb: 6.6.0 (conda-forge)
C           -1.58230909155499        0.47291666284224        0.02470005115036
C           -0.55336573042410       -0.30694984801758       -0.78666370870890
C            0.63462115491149       -0.78353697575532        0.05057620524310
C            1.52032061224341        0.35864410979277        0.53657651878735
H           -1.15897971250621        1.39873161870198        0.40544799591403
H           -1.92983672987081       -0.12034065290289        0.86818725413667
H           -2.44078946783517        0.72341981482337       -0.59475938521221
H           -0.18797371649055        0.31739409289843       -1.60532667719361
H           -1.04111350453527       -1.17922478332666       -1.22860213140006
H            0.26469000807016       -1.34693780224880        0.91037468450719
H            1.23807467896748       -1.46375713479135       -0.55540498374861
H            2.38937258399835       -0.03372652865856        1.06027805094430
H            0.97954583026914        1.00864556493124        1.21948945616193
H            1.86764308475708        0.95462186171113       -0.30507333058154

 Bond Distances (Angstroems)
 ---------------------------
C1-C2=1.5249         C1-H5=1.0869         C1-H6=1.0882         C1-H7=1.0879         C2-C1=1.5249         C2-C3=1.5295         
C2-H8=1.0925         C2-H9=1.0927         C3-C2=1.5295         C3-C4=1.5249         C3-H10=1.0925        C3-H11=1.0927        
C4-C3=1.5249         C4-H12=1.0879        C4-H13=1.0869        C4-H14=1.0882        H5-C1=1.0869         H6-C1=1.0882         
H7-C1=1.0879         H8-C2=1.0925         H9-C2=1.0927         H10-C3=1.0925        H11-C3=1.0927        H12-C4=1.0879        
H13-C4=1.0869        H14-C4=1.0882        
 C  H  Rav=1.0896 sigma=0.0025  Rmin=1.0869  Rmax=1.0927    10
 C  C  Rav=1.5264 sigma=0.0022  Rmin=1.5249  Rmax=1.5295     3

 selected bond angles (degree)
 --------------------
H5-C1-C2=111.05                H6-C1-C2=110.43                H6-C1-H5=108.50                H7-C1-C2=110.32                
H7-C1-H5=108.10                H7-C1-H6=108.35                C3-C2-C1=113.09                H8-C2-C1=109.40                
H8-C2-C3=109.18                H9-C2-C1=108.80                H9-C2-C3=108.62                H9-C2-H8=107.60                
C4-C3-C2=113.09                H10-C3-C2=109.18               H10-C3-C4=109.40               H11-C3-C2=108.62               
H11-C3-C4=108.80               H11-C3-H10=107.60              H12-C4-C3=110.32               H13-C4-C3=111.05               
H13-C4-H12=108.10              H14-C4-C3=110.43               H14-C4-H12=108.35              H14-C4-H13=108.50              

 selected dihedral angles (degree)
 ---------------------------------
C3-C2-C1-H5= 64.49            C3-C2-C1-H6=304.08            C3-C2-C1-H7=184.33            H8-C2-C1-H5=302.57            
H8-C2-C1-H6=182.16            H8-C2-C1-H7= 62.41            H9-C2-C1-H5=185.28            H9-C2-C1-H6= 64.87            
H9-C2-C1-H7=305.11            C4-C3-C2-C1=291.82            C4-C3-C2-H8= 53.87            C4-C3-C2-H9=170.94            
H10-C3-C2-C1= 53.87           H10-C3-C2-H8=175.91           H10-C3-C2-H9=292.98           H11-C3-C2-C1=170.94           
H11-C3-C2-H8=292.98           H11-C3-C2-H9= 50.05           H12-C4-C3-C2=184.33           H12-C4-C3-H10= 62.41          
H12-C4-C3-H11=305.11          H13-C4-C3-C2= 64.49           H13-C4-C3-H10=302.57          H13-C4-C3-H11=185.28          
H14-C4-C3-C2=304.08           H14-C4-C3-H10=182.16          H14-C4-C3-H11= 64.87          
           -------------------------------------------------
          |                Final Singlepoint                |
           -------------------------------------------------

          ...................................................
          :                      SETUP                      :
          :.................................................:
          :  # basis functions                  26          :
          :  # atomic orbitals                  26          :
          :  # shells                           18          :
          :  # electrons                        26          :
          :  max. iterations                   250          :
          :  Hamiltonian                  GFN2-xTB          :
          :  restarted?                      false          :
          :  GBSA solvation                  false          :
          :  PC potential                    false          :
          :  electronic temp.          300.0000000     K    :
          :  accuracy                    1.0000000          :
          :  -> integral cutoff          0.2500000E+02      :
          :  -> integral neglect         0.1000000E-07      :
          :  -> SCF convergence          0.1000000E-05 Eh   :
          :  -> wf. convergence          0.1000000E-03 e    :
          :  Broyden damping             0.4000000          :
          ...................................................

 iter      E             dE          RMSdq      gap      omega  full diag
   1    -13.8748236 -0.138748E+02  0.241E-05   14.24       0.0  T
   2    -13.8748236 -0.197176E-12  0.139E-05   14.24    1923.2  T
   3    -13.8748236 -0.568434E-13  0.197E-06   14.24   13557.5  T

   *** convergence criteria satisfied after 3 iterations ***

         #    Occupation            Energy/Eh            Energy/eV
      -------------------------------------------------------------
         1        2.0000           -0.6177432             -16.8096
       ...           ...                  ...                  ...
         7        2.0000           -0.4849641             -13.1965
         8        2.0000           -0.4661036             -12.6833
         9        2.0000           -0.4620281             -12.5724
        10        2.0000           -0.4481637             -12.1952
        11        2.0000           -0.4258014             -11.5866
        12        2.0000           -0.4237383             -11.5305
        13        2.0000           -0.4220324             -11.4841 (HOMO)
        14                          0.1012013               2.7538 (LUMO)
        15                          0.1111617               3.0249
        16                          0.1368235               3.7232
        17                          0.1483295               4.0363
        18                          0.1498149               4.0767
       ...                                ...                  ...
        26                          0.3005482               8.1783
      -------------------------------------------------------------
                  HL-Gap            0.5232337 Eh           14.2379 eV
             Fermi-level           -0.1604156 Eh           -4.3651 eV

 SCC (total)                   0 d,  0 h,  0 min,  0.002 sec
 SCC setup                      ...        0 min,  0.000 sec (  3.730%)
 Dispersion                     ...        0 min,  0.000 sec (  2.749%)
 classical contributions        ...        0 min,  0.000 sec (  2.616%)
 integral evaluation            ...        0 min,  0.000 sec (  9.136%)
 iterations                     ...        0 min,  0.001 sec ( 41.666%)
 molecular gradient             ...        0 min,  0.001 sec ( 36.607%)
 printout                       ...        0 min,  0.000 sec (  2.872%)

         :::::::::::::::::::::::::::::::::::::::::::::::::::::
         ::                     SUMMARY                     ::
         :::::::::::::::::::::::::::::::::::::::::::::::::::::
         :: total energy             -13.664174916565 Eh    ::
         :: gradient norm              0.000737812248 Eh/a0 ::
         :: HOMO-LUMO gap             14.237914789870 eV    ::
         ::.................................................::
         :: SCC energy               -13.874823647793 Eh    ::
         :: -> isotropic ES            0.002973795650 Eh    ::
         :: -> anisotropic ES          0.004979357721 Eh    ::
         :: -> anisotropic XC          0.009004437177 Eh    ::
         :: -> dispersion             -0.006300585745 Eh    ::
         :: repulsion energy           0.210641636230 Eh    ::
         :: add. restraining           0.000000000000 Eh    ::
         :: total charge              -0.000000000000 e     ::
         :::::::::::::::::::::::::::::::::::::::::::::::::::::

           -------------------------------------------------
          |                Property Printout                |
           -------------------------------------------------

    * Orbital Energies and Occupations

         #    Occupation            Energy/Eh            Energy/eV
      -------------------------------------------------------------
         1        2.0000           -0.6177432             -16.8096
         2        2.0000           -0.5960017             -16.2180
         3        2.0000           -0.5730318             -15.5930
         4        2.0000           -0.5475856             -14.9006
         5        2.0000           -0.5064668             -13.7817
         6        2.0000           -0.5057661             -13.7626
         7        2.0000           -0.4849641             -13.1965
         8        2.0000           -0.4661036             -12.6833
         9        2.0000           -0.4620281             -12.5724
        10        2.0000           -0.4481637             -12.1952
        11        2.0000           -0.4258014             -11.5866
        12        2.0000           -0.4237383             -11.5305
        13        2.0000           -0.4220324             -11.4841 (HOMO)
        14                          0.1012013               2.7538 (LUMO)
        15                          0.1111617               3.0249
        16                          0.1368235               3.7232
        17                          0.1483295               4.0363
        18                          0.1498149               4.0767
        19                          0.1574533               4.2845
        20                          0.2025750               5.5123
        21                          0.2068839               5.6296
        22                          0.2341208               6.3708
        23                          0.2486294               6.7656
        24                          0.2782019               7.5703
       ...                                ...                  ...
        26                          0.3005482               8.1783
      -------------------------------------------------------------
                  HL-Gap            0.5232337 Eh           14.2379 eV
             Fermi-level           -0.1604156 Eh           -4.3651 eV

     #   Z          covCN         q      C6AA      α(0)
     1   6 C        3.751    -0.101    22.493     6.763
     2   6 C        3.800    -0.053    21.520     6.605
     3   6 C        3.800    -0.053    21.520     6.605
     4   6 C        3.751    -0.101    22.493     6.763
     5   1 H        0.925     0.035     2.512     2.479
     6   1 H        0.925     0.033     2.551     2.498
     7   1 H        0.925     0.030     2.585     2.514
     8   1 H        0.924     0.030     2.590     2.517
     9   1 H        0.924     0.026     2.643     2.542
    10   1 H        0.924     0.030     2.590     2.517
    11   1 H        0.924     0.026     2.643     2.542
    12   1 H        0.925     0.030     2.585     2.514
    13   1 H        0.925     0.035     2.512     2.479
    14   1 H        0.925     0.033     2.551     2.498

 Mol. C6AA /au·bohr⁶  :       1208.159967
 Mol. C8AA /au·bohr⁸  :      24486.918888
 Mol. α(0) /au        :         51.835999


Wiberg/Mayer (AO) data.
largest (>0.10) Wiberg bond orders for each atom

 ---------------------------------------------------------------------------
     #   Z sym  total        # sym  WBO       # sym  WBO       # sym  WBO
 ---------------------------------------------------------------------------
     1   6 C    3.997 --     2 C    1.020     6 H    0.988     7 H    0.988
                             5 H    0.986
     2   6 C    3.998 --     1 C    1.020     3 C    1.008     9 H    0.979
                             8 H    0.978
     3   6 C    3.998 --     4 C    1.020     2 C    1.008    11 H    0.979
                            10 H    0.978
     4   6 C    3.997 --     3 C    1.020    14 H    0.988    12 H    0.988
                            13 H    0.986
     5   1 H    0.999 --     1 C    0.986
     6   1 H    0.999 --     1 C    0.988
     7   1 H    0.999 --     1 C    0.988
     8   1 H    0.999 --     2 C    0.978
     9   1 H    0.999 --     2 C    0.979
    10   1 H    0.999 --     3 C    0.978
    11   1 H    0.999 --     3 C    0.979
    12   1 H    0.999 --     4 C    0.988
    13   1 H    0.999 --     4 C    0.986
    14   1 H    0.999 --     4 C    0.988
 ---------------------------------------------------------------------------

Topologies differ in total number of bonds
Writing topology from bond orders to xtbtopo.mol

molecular dipole:
                 x           y           z       tot (Debye)
 q only:       -0.001       0.013       0.009
   full:       -0.001       0.010       0.007       0.031
molecular quadrupole (traceless):
                xx          xy          yy          xz          yz          zz
 q only:       -0.029      -0.012       0.041       0.004       0.068      -0.012
  q+dip:       -0.411       0.154       0.094      -0.258      -0.325       0.317
   full:       -0.197       0.068       0.051      -0.117      -0.140       0.146

           -------------------------------------------------
          |                Geometry Summary                 |
           -------------------------------------------------

      molecular mass/u    :       58.1223511
   center of mass at/Å    :        0.0036456      -0.0490175      -0.0330959
  moments of inertia/u·Å² :        0.3756345E+02   0.1057730E+03   0.1229162E+03
rotational constants/cm⁻¹ :        0.4487775E+00   0.1593756E+00   0.1371473E+00

 * 13 selected distances

     #   Z          #   Z                                           value/Å
     1   6 C        2   6 C                                       1.5248698
     2   6 C        3   6 C                                       1.5295160 (max)
     3   6 C        4   6 C                                       1.5248731
     1   6 C        5   1 H                                       1.0868810
     1   6 C        6   1 H                                       1.0882098
     1   6 C        7   1 H                                       1.0878743
     2   6 C        8   1 H                                       1.0924861
     2   6 C        9   1 H                                       1.0927357
     3   6 C       10   1 H                                       1.0924849
     3   6 C       11   1 H                                       1.0927347
     4   6 C       12   1 H                                       1.0878739
     4   6 C       13   1 H                                       1.0868807 (min)
     4   6 C       14   1 H                                       1.0882082

 * 2 distinct bonds (by element types)

   Z      Z             #   av. dist./Å        max./Å        min./Å
   1 H    6 C          10     1.0896369     1.0927357     1.0868807
   6 C    6 C           3     1.5264196     1.5295160     1.5248698


optimized geometry written to: xtbopt.xyz


           -------------------------------------------------
          | TOTAL ENERGY              -13.664174916565 Eh   |
          | GRADIENT NORM               0.000737812248 Eh/α |
          | HOMO-LUMO GAP              14.237914789870 eV   |
           -------------------------------------------------

------------------------------------------------------------------------
 * finished run on 2024/09/04 at 21:16:18.560     
------------------------------------------------------------------------
 total:
 * wall-time:     0 d,  0 h,  0 min, 15.170 sec
 *  cpu-time:     0 d,  0 h,  0 min,  2.000 sec
 * ratio c/w:     0.132 speedup
 SCF:
 * wall-time:     0 d,  0 h,  0 min,  0.018 sec
 *  cpu-time:     0 d,  0 h,  0 min,  0.099 sec
 * ratio c/w:     5.519 speedup
 ANC optimizer:
 * wall-time:     0 d,  0 h,  0 min,  0.034 sec
 *  cpu-time:     0 d,  0 h,  0 min,  0.218 sec
 * ratio c/w:     6.434 speedup

