      -----------------------------------------------------------      
     |                   =====================                   |     
     |                           x T B                           |     
     |                   =====================                   |     
     |                         S. Grimme                         |     
     |          Mulliken Center for Theoretical Chemistry        |     
     |                    University of Bonn                     |     
      -----------------------------------------------------------      

   * xtb version 6.6.0 (conda-forge) compiled by 'runner@Mac-1676020848589.local' on 2023-02-10

   xtb is free software: you can redistribute it and/or modify it under
   the terms of the GNU Lesser General Public License as published by
   the Free Software Foundation, either version 3 of the License, or
   (at your option) any later version.
   
   xtb is distributed in the hope that it will be useful,
   but WITHOUT ANY WARRANTY; without even the implied warranty of
   MERCHANTABILITY or FITNESS FOR A PARTICULAR PURPOSE.  See the
   GNU Lesser General Public License for more details.
   
   Cite this work as:
   * C. Bannwarth, E. Caldeweyher, S. Ehlert, A. Hansen, P. Pracht,
     J. Seibert, S. Spicher, S. Grimme, WIREs Comput. Mol. Sci., 2020, 11,
     e01493. DOI: 10.1002/wcms.1493
   
   for GFN2-xTB:
   * C. Bannwarth, S. Ehlert and S. Grimme., J. Chem. Theory Comput., 2019,
     15, 1652-1671. DOI: 10.1021/acs.jctc.8b01176
   for GFN1-xTB:
   * S. Grimme, C. Bannwarth, P. Shushkov, J. Chem. Theory Comput., 2017,
     13, 1989-2009. DOI: 10.1021/acs.jctc.7b00118
   for GFN0-xTB:
   * P. Pracht, E. Caldeweyher, S. Ehlert, S. Grimme, ChemRxiv, 2019, preprint.
     DOI: 10.26434/chemrxiv.8326202.v1
   for GFN-FF:
   * S. Spicher and S. Grimme, Angew. Chem. Int. Ed., 2020, 59, 15665-15673.
     DOI: 10.1002/anie.202004239
   
   for ALPB and GBSA implicit solvation:
   * S. Ehlert, M. Stahn, S. Spicher, S. Grimme, J. Chem. Theory Comput.,
     2021, 17, 4250-4261. DOI: 10.1021/acs.jctc.1c00471
   
   for DFT-D4:
   * E. Caldeweyher, C. Bannwarth and S. Grimme, J. Chem. Phys., 2017,
     147, 034112. DOI: 10.1063/1.4993215
   * E. Caldeweyher, S. Ehlert, A. Hansen, H. Neugebauer, S. Spicher,
     C. Bannwarth and S. Grimme, J. Chem. Phys., 2019, 150, 154122.
     DOI: 10.1063/1.5090222
   * E. Caldeweyher, J.-M. Mewes, S. Ehlert and S. Grimme, Phys. Chem. Chem. Phys.
     2020, 22, 8499-8512. DOI: 10.1039/D0CP00502A
   
   for sTDA-xTB:
   * S. Grimme and C. Bannwarth, J. Chem. Phys., 2016, 145, 054103.
     DOI: 10.1063/1.4959605
   
   in the mass-spec context:
   * V. Asgeirsson, C. Bauer and S. Grimme, Chem. Sci., 2017, 8, 4879.
     DOI: 10.1039/c7sc00601b
   * J. Koopman and S. Grimme, ACS Omega 2019, 4, 12, 15120-15133.
     DOI: 10.1021/acsomega.9b02011
   
   for metadynamics refer to:
   * S. Grimme, J. Chem. Theory Comput., 2019, 155, 2847-2862
     DOI: 10.1021/acs.jctc.9b00143
   
   for SPH calculations refer to:
   * S. Spicher and S. Grimme, J. Chem. Theory Comput., 2021, 17, 1701-1714
     DOI: 10.1021/acs.jctc.0c01306
   
   with help from (in alphabetical order)
   P. Atkinson, C. Bannwarth, F. Bohle, G. Brandenburg, E. Caldeweyher
   M. Checinski, S. Dohm, S. Ehlert, S. Ehrlich, I. Gerasimov, C. Hölzer
   A. Katbashev, J. Koopman, C. Lavigne, S. Lehtola, F. März, M. Müller,
   F. Musil, H. Neugebauer, J. Pisarek, C. Plett, P. Pracht, F. Pultar,
   J. Seibert, P. Shushkov, S. Spicher, M. Stahn, M. Steiner, T. Strunk,
   J. Stückrath, T. Rose, and J. Unsleber
   
 * started run on 2024/09/19 at 14:39:17.912     

           -------------------------------------------------
          |                Calculation Setup                |
           -------------------------------------------------

          program call               : xtb input_molecule.xyz --gfnff --chrg 0 --opt
          coordinate file            : input_molecule.xyz
          omp threads                :                     8

   ID    Z sym.   atoms
    1    6 C      1-4
    2    1 H      5-14

          ==================== Thresholds ====================
          CN  :   150.00000
          rep :   500.00000
          disp:  2500.00000
          HB1 :   250.00000
          HB2 :   450.00000

          Pauling EN used:
          Z : 1  EN :  2.20
          Z : 6  EN :  2.55
          electric field strengths (au): 0.000

           ------------------------------------------------- 
          |           Force Field Initialization            |
           ------------------------------------------------- 

          distances ...
          ----------------------------------------
          generating topology and atomic info file ...
          pair mat ...
          computing topology distances matrix with Floyd-Warshall algo ...
          making topology EEQ charges ...
          #fragments for EEQ constrain: 1
          ----------------------------------------
          generating topology and atomic info file ...
          pair mat ...
          computing topology distances matrix with Floyd-Warshall algo ...
          making topology EEQ charges ...
          #fragments for EEQ constrain: 1
          rings ...
          # BATM   90
          # H in HB   0

  atom   neighbors  erfCN metchar sp-hybrid imet pi  qest     coordinates
    1  C       4    3.48   0.00         3    0    0  -0.056   -3.008066    0.888360    0.049322
    2  C       4    3.48   0.00         3    0    0  -0.038   -1.038782   -0.555391   -1.493262
    3  C       4    3.48   0.00         3    0    0  -0.038    1.190338   -1.478333    0.120376
    4  C       4    3.48   0.00         3    0    0  -0.056    2.891092    0.679923    1.009303
    5  H       1    0.97   0.01         0    0    0   0.019   -2.217405    2.697773    0.755135
    6  H       1    0.97   0.01         0    0    0   0.019   -3.663423   -0.270231    1.672219
    7  H       1    0.97   0.01         0    0    0   0.019   -4.660443    1.327722   -1.167095
    8  H       1    0.97   0.01         0    0    0   0.018   -0.343363    0.658570   -3.060600
    9  H       1    0.97   0.01         0    0    0   0.018   -1.973252   -2.228932   -2.352709
   10  H       1    0.97   0.01         0    0    0   0.018    0.484337   -2.549807    1.783901
   11  H       1    0.97   0.01         0    0    0   0.018    2.347607   -2.794338   -1.037838
   12  H       1    0.97   0.01         0    0    0   0.019    4.569925   -0.113195    1.986858
   13  H       1    0.97   0.01         0    0    0   0.019    1.873286    1.918639    2.360835
   14  H       1    0.97   0.01         0    0    0   0.019    3.547961    1.819050   -0.626822

          #atoms :   14
          #bonds :   13
          #angl  :   24
          #tors  :   28
          #nmol  :   1
          #optfrag :   1
           ------------------------------------------------- 
          |                   G F N - F F                   |
          |          A general generic force-field          |
          |                  Version 1.0.3                  | 
           ------------------------------------------------- 
          Number of HB bonds (bound hydrogen)     0
          Number of HB bonds (unbound hydrogen)   0
          Number of XB bonds                      0

 E+G (total)                   0 d,  0 h,  0 min,  0.003 sec
 distance/D3 list               ...        0 min,  0.000 sec (  0.034%)
 non bonded repulsion           ...        0 min,  0.001 sec ( 29.879%)
 dCN                            ...        0 min,  0.000 sec (  0.286%)
 EEQ energy and q               ...        0 min,  0.001 sec ( 31.251%)
 D3                             ...        0 min,  0.000 sec (  9.816%)
 EEQ gradient                   ...        0 min,  0.000 sec ( 11.509%)
 bonds                          ...        0 min,  0.000 sec (  2.366%)
 bend and torsion               ...        0 min,  0.000 sec ( 12.502%)
 bonded ATM                     ...        0 min,  0.000 sec (  0.775%)
 HB/XB (incl list setup)        ...        0 min,  0.000 sec (  0.951%)

         :::::::::::::::::::::::::::::::::::::::::::::::::::::
         ::                     SUMMARY                     ::
         :::::::::::::::::::::::::::::::::::::::::::::::::::::
         :: total energy              -1.955886134152 Eh    ::
         :: gradient norm              0.033565358872 Eh/a0 ::
         ::.................................................::
         :: bond energy               -2.044105008726 Eh    ::
         :: angle energy               0.000668507181 Eh    ::
         :: torsion energy            -0.000017394227 Eh    ::
         :: repulsion energy           0.098037386548 Eh    ::
         :: electrostat energy        -0.004079047544 Eh    ::
         :: dispersion energy         -0.005951775257 Eh    ::
         :: HB energy                  0.000000000000 Eh    ::
         :: XB energy                  0.000000000000 Eh    ::
         :: bonded atm energy         -0.000438802128 Eh    ::
         :: external energy            0.000000000000 Eh    ::
         :: add. restraining           0.000000000000 Eh    ::
         :: total charge               0.000000000000 e     ::
         :::::::::::::::::::::::::::::::::::::::::::::::::::::

      ----------------------------------------------------------- 
     |                   =====================                   |
     |                        A N C O P T                        |
     |                   =====================                   |
     |               Approximate Normal Coordinate               |
     |                Rational Function Optimizer                |
      ----------------------------------------------------------- 

          ...................................................
          :                      SETUP                      :
          :.................................................:
          :   optimization level            normal          :
          :   max. optcycles                   200          :
          :   ANC micro-cycles                  20          :
          :   degrees of freedom                36          :
          :.................................................:
          :   RF solver                   davidson          :
          :   write xtbopt.log                true          :
          :   linear?                        false          :
          :   energy convergence         0.5000000E-05 Eh   :
          :   grad. convergence          0.1000000E-02 Eh/α :
          :   maxmium RF displ.          1.0000000          :
          :   Hlow (freq-cutoff)         0.1000000E-01      :
          :   Hmax (freq-cutoff)         5.0000000          :
          :   S6 in model hess.         20.0000000          :
          ...................................................

generating ANC from model Hessian ...
Using GFN-FF Lindh-Hessian
 Shifting diagonal of input Hessian by    6.7185549539994678E-003
 Lowest  eigenvalues of input Hessian
    0.000000    0.000000    0.000000    0.000000    0.000000    0.000000
    0.010000    0.011993    0.013747    0.022135    0.032560    0.074487
    0.078326    0.090574    0.091511    0.093249    0.105639    0.115029
 Highest eigenvalues
    1.322863    1.389483    1.390695    1.518135    1.541609    1.578023


........................................................................
.............................. CYCLE    1 ..............................
........................................................................
 * total energy  :    -1.9558861 Eh     change        0.0000000E+00 Eh
   gradient norm :     0.0335654 Eh/α   predicted     0.0000000E+00 (    NaN%)
   displ. norm   :     0.1095608 α      lambda       -0.2970139E-02
   maximum displ.:     0.0817538 α      in ANC's #24, #2, #10, ...

........................................................................
.............................. CYCLE    2 ..............................
........................................................................
 * total energy  :    -1.9579822 Eh     change       -0.2096107E-02 Eh
   gradient norm :     0.0138667 Eh/α   predicted    -0.1502895E-02 ( -28.30%)
   displ. norm   :     0.1140440 α      lambda       -0.9930835E-03
   maximum displ.:     0.0575036 α      in ANC's #24, #2, #10, ...

........................................................................
.............................. CYCLE    3 ..............................
........................................................................
 * total energy  :    -1.9585277 Eh     change       -0.5455031E-03 Eh
   gradient norm :     0.0058086 Eh/α   predicted    -0.5029991E-03 (  -7.79%)
   displ. norm   :     0.0566528 α      lambda       -0.7592996E-04
   maximum displ.:     0.0387825 α      in ANC's #2, #3, #1, ...

........................................................................
.............................. CYCLE    4 ..............................
........................................................................
 * total energy  :    -1.9585834 Eh     change       -0.5561587E-04 Eh
   gradient norm :     0.0030536 Eh/α   predicted    -0.3808803E-04 ( -31.52%)
   displ. norm   :     0.0646913 α      lambda       -0.4230787E-04
   maximum displ.:     0.0445425 α      in ANC's #2, #3, #4, ...

........................................................................
.............................. CYCLE    5 ..............................
........................................................................
 * total energy  :    -1.9586065 Eh     change       -0.2313567E-04 Eh
   gradient norm :     0.0006787 Eh/α   predicted    -0.2124285E-04 (  -8.18%)
   displ. norm   :     0.0249718 α      lambda       -0.3663241E-05
   maximum displ.:     0.0139794 α      in ANC's #4, #2, #1, ...

........................................................................
.............................. CYCLE    6 ..............................
........................................................................
 * total energy  :    -1.9586104 Eh     change       -0.3939636E-05 Eh
   gradient norm :     0.0007571 Eh/α   predicted    -0.1830289E-05 ( -53.54%)
   displ. norm   :     0.0244063 α      lambda       -0.2886452E-05
   maximum displ.:     0.0153800 α      in ANC's #4, #1, #2, ...

   *** GEOMETRY OPTIMIZATION CONVERGED AFTER 6 ITERATIONS ***

------------------------------------------------------------------------
 total energy gain   :        -0.0027243 Eh       -1.7095 kcal/mol
 total RMSD          :         0.0895146 a0        0.0474 Å
 total power (kW/mol):        -1.1921086 (step) -838.6089 (real)
------------------------------------------------------------------------

 ANCopt (total)                0 d,  0 h,  0 min,  0.009 sec
 optimizer setup                ...        0 min,  0.001 sec ( 17.377%)
 model hessian                  ...        0 min,  0.002 sec ( 21.889%)
 ANC generation                 ...        0 min,  0.003 sec ( 30.256%)
 coordinate transformation      ...        0 min,  0.000 sec (  0.221%)
 single point calculation       ...        0 min,  0.000 sec (  4.115%)
 optimization log               ...        0 min,  0.001 sec (  6.456%)
 hessian update                 ...        0 min,  0.000 sec (  2.274%)
 rational function              ...        0 min,  0.001 sec ( 12.728%)

================
 final structure:
================
14
 xtb: 6.6.0 (conda-forge)
C           -1.57538649268703        0.47429673899521        0.02299813378967
C           -0.55989990058824       -0.31774187405544       -0.78654089464726
C            0.64216701779991       -0.78673784438935        0.04170124895123
C            1.51339203109794        0.35731718687046        0.53779902724625
H           -1.14110413660537        1.39122817638516        0.42630624771736
H           -1.94429299406356       -0.10690756392281        0.87108336162448
H           -2.44271462600103        0.76380651195072       -0.57597131690758
H           -0.20170206898035        0.28601423048475       -1.63174066858624
H           -1.05395113478201       -1.18535627246016       -1.24749860332913
H            0.28331129882451       -1.38074894589996        0.89351163086445
H            1.25264854829793       -1.48281420605999       -0.55168139238466
H            2.38848469419119       -0.00043616147171        1.08653262536836
H            0.96246823041049        1.02173999367282        1.20648218003422
H            1.87647953308563        0.96624002990028       -0.29318157974114

 Bond Distances (Angstroems)
 ---------------------------
C1-C2=1.5211         C1-H5=1.0918         C1-H6=1.0923         C1-H7=1.0931         C2-C1=1.5211         C2-C3=1.5333         
C2-H8=1.0987         C2-H9=1.0997         C3-C2=1.5333         C3-C4=1.5212         C3-H10=1.0987        C3-H11=1.0997        
C4-C3=1.5212         C4-H12=1.0931        C4-H13=1.0918        C4-H14=1.0923        H5-C1=1.0918         H6-C1=1.0923         
H7-C1=1.0931         H8-C2=1.0987         H9-C2=1.0997         H10-C3=1.0987        H11-C3=1.0997        H12-C4=1.0931        
H13-C4=1.0918        H14-C4=1.0923        
 C  H  Rav=1.0951 sigma=0.0034  Rmin=1.0918  Rmax=1.0997    10
 C  C  Rav=1.5252 sigma=0.0057  Rmin=1.5211  Rmax=1.5333     3

 selected bond angles (degree)
 --------------------
H5-C1-C2=111.61                H6-C1-C2=111.20                H6-C1-H5=107.12                H7-C1-C2=112.09                
H7-C1-H5=107.19                H7-C1-H6=107.36                C3-C2-C1=113.28                H8-C2-C1=109.93                
H8-C2-C3=109.15                H9-C2-C1=109.51                H9-C2-C3=109.71                H9-C2-H8=104.93                
C4-C3-C2=113.27                H10-C3-C2=109.15               H10-C3-C4=109.93               H11-C3-C2=109.72               
H11-C3-C4=109.52               H11-C3-H10=104.92              H12-C4-C3=112.09               H13-C4-C3=111.62               
H13-C4-H12=107.20              H14-C4-C3=111.19               H14-C4-H12=107.35              H14-C4-H13=107.12              

 selected dihedral angles (degree)
 ---------------------------------
C3-C2-C1-H5= 62.07            C3-C2-C1-H6=302.51            C3-C2-C1-H7=182.33            H8-C2-C1-H5=299.67            
H8-C2-C1-H6=180.11            H8-C2-C1-H7= 59.92            H9-C2-C1-H5=184.89            H9-C2-C1-H6= 65.33            
H9-C2-C1-H7=305.14            C4-C3-C2-C1=293.68            C4-C3-C2-H8= 56.52            C4-C3-C2-H9=170.98            
H10-C3-C2-C1= 56.51           H10-C3-C2-H8=179.35           H10-C3-C2-H9=293.81           H11-C3-C2-C1=170.97           
H11-C3-C2-H8=293.80           H11-C3-C2-H9= 48.26           H12-C4-C3-C2=182.61           H12-C4-C3-H10= 60.21          
H12-C4-C3-H11=305.43          H13-C4-C3-C2= 62.34           H13-C4-C3-H10=299.94          H13-C4-C3-H11=185.16          
H14-C4-C3-C2=302.78           H14-C4-C3-H10=180.38          H14-C4-C3-H11= 65.61          
           -------------------------------------------------
          |                Final Singlepoint                |
           -------------------------------------------------
         :::::::::::::::::::::::::::::::::::::::::::::::::::::
         ::                     SUMMARY                     ::
         :::::::::::::::::::::::::::::::::::::::::::::::::::::
         :: total energy              -1.958610435191 Eh    ::
         :: gradient norm              0.000757145872 Eh/a0 ::
         ::.................................................::
         :: bond energy               -2.056715320967 Eh    ::
         :: angle energy               0.001665457640 Eh    ::
         :: torsion energy            -0.000206151967 Eh    ::
         :: repulsion energy           0.107206386573 Eh    ::
         :: electrostat energy        -0.004137620924 Eh    ::
         :: dispersion energy         -0.005958919420 Eh    ::
         :: HB energy                  0.000000000000 Eh    ::
         :: XB energy                  0.000000000000 Eh    ::
         :: bonded atm energy         -0.000464266126 Eh    ::
         :: external energy            0.000000000000 Eh    ::
         :: add. restraining           0.000000000000 Eh    ::
         :: total charge               0.000000000000 e     ::
         :::::::::::::::::::::::::::::::::::::::::::::::::::::

           -------------------------------------------------
          |                Property Printout                |
           -------------------------------------------------
           -------------------------------------------------
          |                Geometry Summary                 |
           -------------------------------------------------

      molecular mass/u    :       58.1223511
   center of mass at/Å    :        0.0038360      -0.0516563      -0.0348435
  moments of inertia/u·Å² :        0.3799022E+02   0.1054652E+03   0.1233168E+03
rotational constants/cm⁻¹ :        0.4437362E+00   0.1598408E+00   0.1367018E+00

 * 13 selected distances

     #   Z          #   Z                                           value/Å
     1   6 C        2   6 C                                       1.5211483
     2   6 C        3   6 C                                       1.5332670 (max)
     3   6 C        4   6 C                                       1.5211865
     1   6 C        5   1 H                                       1.0917976 (min)
     1   6 C        6   1 H                                       1.0923091
     1   6 C        7   1 H                                       1.0930867
     2   6 C        8   1 H                                       1.0987220
     2   6 C        9   1 H                                       1.0996925
     3   6 C       10   1 H                                       1.0987301
     3   6 C       11   1 H                                       1.0996878
     4   6 C       12   1 H                                       1.0931072
     4   6 C       13   1 H                                       1.0918389
     4   6 C       14   1 H                                       1.0923134

 * 2 distinct bonds (by element types)

   Z      Z             #   av. dist./Å        max./Å        min./Å
   1 H    6 C          10     1.0951285     1.0996925     1.0917976
   6 C    6 C           3     1.5252006     1.5332670     1.5211483


optimized geometry written to: xtbopt.xyz


           -------------------------------------------------
          | TOTAL ENERGY               -1.958610435191 Eh   |
          | GRADIENT NORM               0.000757145872 Eh/α |
           -------------------------------------------------
########################################################################
[WARNING] Runtime exception occurred
-6- gfnff_ini: Could not initialize fragment charges from file
-5- gfnff_ini: More charges than atoms present, assuming missmatch
-4- gfnff_ini: Could not initialize fragment charges from file
-3- gfnff_ini: More charges than atoms present, assuming missmatch
-2- gfnff_setup: Could not read topology file.
-1- restart_read_restart_gff: Atom number missmatch in restart file.
########################################################################

------------------------------------------------------------------------
 * finished run on 2024/09/19 at 14:39:29.223     
------------------------------------------------------------------------
 total:
 * wall-time:     0 d,  0 h,  0 min, 11.310 sec
 *  cpu-time:     0 d,  0 h,  0 min,  1.672 sec
 * ratio c/w:     0.148 speedup
 SCF:
 * wall-time:     0 d,  0 h,  0 min,  0.004 sec
 *  cpu-time:     0 d,  0 h,  0 min,  0.015 sec
 * ratio c/w:     3.796 speedup
 ANC optimizer:
 * wall-time:     0 d,  0 h,  0 min,  0.010 sec
 *  cpu-time:     0 d,  0 h,  0 min,  0.064 sec
 * ratio c/w:     6.710 speedup

