      -----------------------------------------------------------      
     |                   =====================                   |     
     |                           x T B                           |     
     |                   =====================                   |     
     |                         S. Grimme                         |     
     |          Mulliken Center for Theoretical Chemistry        |     
     |                    University of Bonn                     |     
      -----------------------------------------------------------      

   * xtb version 6.6.0 (conda-forge) compiled by 'runner@Mac-1676020848589.local' on 2023-02-10

   xtb is free software: you can redistribute it and/or modify it under
   the terms of the GNU Lesser General Public License as published by
   the Free Software Foundation, either version 3 of the License, or
   (at your option) any later version.
   
   xtb is distributed in the hope that it will be useful,
   but WITHOUT ANY WARRANTY; without even the implied warranty of
   MERCHANTABILITY or FITNESS FOR A PARTICULAR PURPOSE.  See the
   GNU Lesser General Public License for more details.
   
   Cite this work as:
   * C. Bannwarth, E. Caldeweyher, S. Ehlert, A. Hansen, P. Pracht,
     J. Seibert, S. Spicher, S. Grimme, WIREs Comput. Mol. Sci., 2020, 11,
     e01493. DOI: 10.1002/wcms.1493
   
   for GFN2-xTB:
   * C. Bannwarth, S. Ehlert and S. Grimme., J. Chem. Theory Comput., 2019,
     15, 1652-1671. DOI: 10.1021/acs.jctc.8b01176
   for GFN1-xTB:
   * S. Grimme, C. Bannwarth, P. Shushkov, J. Chem. Theory Comput., 2017,
     13, 1989-2009. DOI: 10.1021/acs.jctc.7b00118
   for GFN0-xTB:
   * P. Pracht, E. Caldeweyher, S. Ehlert, S. Grimme, ChemRxiv, 2019, preprint.
     DOI: 10.26434/chemrxiv.8326202.v1
   for GFN-FF:
   * S. Spicher and S. Grimme, Angew. Chem. Int. Ed., 2020, 59, 15665-15673.
     DOI: 10.1002/anie.202004239
   
   for ALPB and GBSA implicit solvation:
   * S. Ehlert, M. Stahn, S. Spicher, S. Grimme, J. Chem. Theory Comput.,
     2021, 17, 4250-4261. DOI: 10.1021/acs.jctc.1c00471
   
   for DFT-D4:
   * E. Caldeweyher, C. Bannwarth and S. Grimme, J. Chem. Phys., 2017,
     147, 034112. DOI: 10.1063/1.4993215
   * E. Caldeweyher, S. Ehlert, A. Hansen, H. Neugebauer, S. Spicher,
     C. Bannwarth and S. Grimme, J. Chem. Phys., 2019, 150, 154122.
     DOI: 10.1063/1.5090222
   * E. Caldeweyher, J.-M. Mewes, S. Ehlert and S. Grimme, Phys. Chem. Chem. Phys.
     2020, 22, 8499-8512. DOI: 10.1039/D0CP00502A
   
   for sTDA-xTB:
   * S. Grimme and C. Bannwarth, J. Chem. Phys., 2016, 145, 054103.
     DOI: 10.1063/1.4959605
   
   in the mass-spec context:
   * V. Asgeirsson, C. Bauer and S. Grimme, Chem. Sci., 2017, 8, 4879.
     DOI: 10.1039/c7sc00601b
   * J. Koopman and S. Grimme, ACS Omega 2019, 4, 12, 15120-15133.
     DOI: 10.1021/acsomega.9b02011
   
   for metadynamics refer to:
   * S. Grimme, J. Chem. Theory Comput., 2019, 155, 2847-2862
     DOI: 10.1021/acs.jctc.9b00143
   
   for SPH calculations refer to:
   * S. Spicher and S. Grimme, J. Chem. Theory Comput., 2021, 17, 1701-1714
     DOI: 10.1021/acs.jctc.0c01306
   
   with help from (in alphabetical order)
   P. Atkinson, C. Bannwarth, F. Bohle, G. Brandenburg, E. Caldeweyher
   M. Checinski, S. Dohm, S. Ehlert, S. Ehrlich, I. Gerasimov, C. Hölzer
   A. Katbashev, J. Koopman, C. Lavigne, S. Lehtola, F. März, M. Müller,
   F. Musil, H. Neugebauer, J. Pisarek, C. Plett, P. Pracht, F. Pultar,
   J. Seibert, P. Shushkov, S. Spicher, M. Stahn, M. Steiner, T. Strunk,
   J. Stückrath, T. Rose, and J. Unsleber
   
 * started run on 2024/09/04 at 15:46:43.918     

           -------------------------------------------------
          |                Calculation Setup                |
           -------------------------------------------------

          program call               : xtb input_molecule.xyz --gfn1 --chrg 0 --opt --alpb benzene
          coordinate file            : input_molecule.xyz
          omp threads                :                     8

   ID    Z sym.   atoms
    1    6 C      1
    2    1 H      2-5
########################################################################
[WARNING] Please study the warnings concerning your input carefully
-1- prog_main_parseArguments: The use of '--gfn1' is discouraged, please use '--gfn 1' next time
########################################################################

           -------------------------------------------------
          |                 G F N 1 - x T B                 |
           -------------------------------------------------

        Reference                      10.1021/acs.jctc.7b00118
      * Hamiltonian:
        H0-scaling (s, p, d)           1.850000    2.250000    2.000000
        zeta-weighting                 0.000000
      * Dispersion:
        s8                             2.400000
        a1                             0.630000
        a2                             5.000000
        s9                             0.000000
      * Repulsion:
        kExp                           1.500000
        rExp                           1.000000
      * Coulomb:
        alpha                          2.000000
        third order                    atomic
        anisotropic                    false
      * Halogen bond correction:
        rad-scale                      1.300000
        damping                        0.440000

      * Solvation model:               ALPB
        Solvent                        benzene
        Parameter file                 internal GFN1-xTB/ALPB
        Dielectric constant                7.0000E+00
        Reference state                gsolv [1 M gas/solution]
        Free energy shift                  5.0562E-03 Eh       3.1728E+00 kcal/mol
        Temperature                        2.9815E+02 K
        Density                            8.6700E-01 kg/L
        Solvent mass                       7.8110E+01 g/mol
        Interaction kernel             P16
        Born radius scaling (c1)           1.7593E+00
        Born radii integrator          GBOBC
        Born offset                        0.0000E+00 a0       0.0000E+00 AA
        H-bond correction              false
        Ion screening                  false
        Surface tension                    1.0000E-05 Eh       1.5569E+01 dyn/cm
        Grid points                               230 per atom
q/qsh data taken from xtbrestart

          ...................................................
          :                      SETUP                      :
          :.................................................:
          :  # basis functions                  12          :
          :  # atomic orbitals                  12          :
          :  # shells                           10          :
          :  # electrons                         8          :
          :  # halogen bonds                     0          :
          :  max. iterations                   250          :
          :  Hamiltonian                  GFN1-xTB          :
          :  restarted?                       true          :
          :  GBSA solvation                   true          :
          :  PC potential                    false          :
          :  electronic temp.          300.0000000     K    :
          :  accuracy                    1.0000000          :
          :  -> integral cutoff          0.2500000E+02      :
          :  -> integral neglect         0.1000000E-07      :
          :  -> SCF convergence          0.1000000E-05 Eh   :
          :  -> wf. convergence          0.2000000E-04 e    :
          :  Broyden damping             0.4000000          :
          ...................................................

 iter      E             dE          RMSdq      gap      omega  full diag
   1     -4.3163678 -0.431637E+01  0.275E+00   10.48       0.0  T
   2     -4.3278896 -0.115218E-01  0.140E+00   10.12       1.0  T
   3     -4.3291202 -0.123058E-02  0.845E-01   10.01       1.0  T
   4     -4.3291775 -0.572602E-04  0.117E-01    9.97       1.0  T
   5     -4.3291906 -0.131366E-04  0.150E-03    9.99      29.7  T
   6     -4.3291906  0.804767E-08  0.356E-03    9.99      12.6  T
   7     -4.3291906 -0.824001E-08  0.557E-05    9.99     802.3  T
   8     -4.3291906 -0.269917E-11  0.563E-06    9.99    7938.3  T

   *** convergence criteria satisfied after 8 iterations ***

         #    Occupation            Energy/Eh            Energy/eV
      -------------------------------------------------------------
         1        2.0000           -0.6247060             -16.9991
         2        2.0000           -0.5122930             -13.9402
         3        2.0000           -0.5122884             -13.9401
         4        2.0000           -0.5122836             -13.9399 (HOMO)
         5                         -0.1453263              -3.9545 (LUMO)
         6                         -0.0610158              -1.6603
         7                         -0.0610145              -1.6603
         8                         -0.0610136              -1.6603
         9                          0.2349550               6.3935
       ...                                ...                  ...
        12                          0.4443446              12.0912
      -------------------------------------------------------------
                  HL-Gap            0.3669573 Eh            9.9854 eV
             Fermi-level           -0.3288050 Eh           -8.9472 eV

 SCC (total)                   0 d,  0 h,  0 min,  0.003 sec
 SCC setup                      ...        0 min,  0.000 sec ( 12.613%)
 Dispersion                     ...        0 min,  0.000 sec (  2.676%)
 classical contributions        ...        0 min,  0.000 sec (  1.026%)
 integral evaluation            ...        0 min,  0.000 sec (  8.846%)
 iterations                     ...        0 min,  0.002 sec ( 67.111%)
 molecular gradient             ...        0 min,  0.000 sec (  6.106%)
 printout                       ...        0 min,  0.000 sec (  1.169%)

         :::::::::::::::::::::::::::::::::::::::::::::::::::::
         ::                     SUMMARY                     ::
         :::::::::::::::::::::::::::::::::::::::::::::::::::::
         :: total energy              -4.272643742748 Eh    ::
         :: total w/o Gsasa/hb        -4.272972175827 Eh    ::
         :: gradient norm              0.028551307238 Eh/a0 ::
         :: HOMO-LUMO gap              9.985415210855 eV    ::
         ::.................................................::
         :: SCC energy                -4.329190611223 Eh    ::
         :: -> electrostatic           0.000077682972 Eh    ::
         :: -> Gsolv                   0.000309558483 Eh    ::
         ::    -> Gelec               -0.000018874596 Eh    ::
         ::    -> Gsasa               -0.004727725099 Eh    ::
         ::    -> Ghb                  0.000000000000 Eh    ::
         ::    -> Gshift               0.005056158178 Eh    ::
         :: repulsion energy           0.057001703960 Eh    ::
         :: dispersion energy         -0.000454835484 Eh    ::
         :: halogen bond corr.         0.000000000000 Eh    ::
         :: add. restraining           0.000000000000 Eh    ::
         :: total charge              -0.000000002014 e     ::
         :::::::::::::::::::::::::::::::::::::::::::::::::::::

      ----------------------------------------------------------- 
     |                   =====================                   |
     |                        A N C O P T                        |
     |                   =====================                   |
     |               Approximate Normal Coordinate               |
     |                Rational Function Optimizer                |
      ----------------------------------------------------------- 

          ...................................................
          :                      SETUP                      :
          :.................................................:
          :   optimization level            normal          :
          :   max. optcycles                   200          :
          :   ANC micro-cycles                  20          :
          :   degrees of freedom                 9          :
          :.................................................:
          :   RF solver                   davidson          :
          :   write xtbopt.log                true          :
          :   linear?                        false          :
          :   energy convergence         0.5000000E-05 Eh   :
          :   grad. convergence          0.1000000E-02 Eh/α :
          :   maxmium RF displ.          1.0000000          :
          :   Hlow (freq-cutoff)         0.1000000E-01      :
          :   Hmax (freq-cutoff)         5.0000000          :
          :   S6 in model hess.         20.0000000          :
          ...................................................

generating ANC from model Hessian ...
Using Lindh-Hessian (1995)
 Shifting diagonal of input Hessian by    0.0000000000000000     
 Lowest  eigenvalues of input Hessian
    0.000000    0.000000    0.000000    0.000000    0.000000    0.000000
    0.085561    0.085562    0.107561    0.107566    0.107569    0.381695
    1.041076    1.041165    1.041244
 Highest eigenvalues
    0.107566    0.107569    0.381695    1.041076    1.041165    1.041244


........................................................................
.............................. CYCLE    1 ..............................
........................................................................

 iter      E             dE          RMSdq      gap      omega  full diag
   1     -4.3291906 -0.432919E+01  0.124E-07    9.99       0.0  T
   2     -4.3291906  0.000000E+00  0.425E-08    9.99  100000.0  T
   3     -4.3291906 -0.266454E-14  0.144E-09    9.99  100000.0  T
     SCC iter.                  ...        0 min,  0.000 sec
     gradient                   ...        0 min,  0.000 sec
 * total energy  :    -4.2726437 Eh     change       -0.3108624E-13 Eh
   gradient norm :     0.0285513 Eh/α   predicted     0.0000000E+00 (-100.00%)
   displ. norm   :     0.0743877 α      lambda       -0.2123853E-02
   maximum displ.:     0.0743873 α      in ANC's #6, #5, #4, ...

........................................................................
.............................. CYCLE    2 ..............................
........................................................................

 iter      E             dE          RMSdq      gap      omega  full diag
   1     -4.3398644 -0.433986E+01  0.104E-01    9.99       0.0  T
   2     -4.3398661 -0.168124E-05  0.545E-02    9.99       1.0  T
   3     -4.3398664 -0.231812E-06  0.841E-03    9.98       5.3  T
   4     -4.3398664 -0.201576E-07  0.166E-04    9.99     270.2  T
   5     -4.3398664 -0.222382E-10  0.307E-07    9.99  100000.0  T
     SCC iter.                  ...        0 min,  0.000 sec
     gradient                   ...        0 min,  0.000 sec
 * total energy  :    -4.2738782 Eh     change       -0.1234483E-02 Eh
   gradient norm :     0.0041507 Eh/α   predicted    -0.1067805E-02 ( -13.50%)
   displ. norm   :     0.0126524 α      lambda       -0.5251686E-04
   maximum displ.:     0.0126517 α      in ANC's #6, #4, #5, ...

........................................................................
.............................. CYCLE    3 ..............................
........................................................................

 iter      E             dE          RMSdq      gap      omega  full diag
   1     -4.3416395 -0.434164E+01  0.180E-02    9.99       0.0  T
   2     -4.3416395 -0.508615E-07  0.944E-03    9.99       4.7  T
   3     -4.3416395 -0.747304E-08  0.144E-03    9.98      31.0  T
   4     -4.3416395 -0.610857E-09  0.542E-06    9.98    8255.7  T
   5     -4.3416395 -0.195399E-13  0.864E-08    9.98  100000.0  T
     SCC iter.                  ...        0 min,  0.000 sec
     gradient                   ...        0 min,  0.000 sec
 * total energy  :    -4.2739027 Eh     change       -0.2445958E-04 Eh
   gradient norm :     0.0002994 Eh/α   predicted    -0.2626158E-04 (   7.37%)
   displ. norm   :     0.0012774 α      lambda       -0.2555127E-06
   maximum displ.:     0.0012767 α      in ANC's #6, #4, #5, ...

........................................................................
.............................. CYCLE    4 ..............................
........................................................................

 iter      E             dE          RMSdq      gap      omega  full diag
   1     -4.3414612 -0.434146E+01  0.182E-03    9.98       0.0  T
   2     -4.3414612 -0.524434E-09  0.955E-04    9.98      46.8  T
   3     -4.3414612 -0.775193E-10  0.146E-04    9.98     306.0  T
   4     -4.3414612 -0.632827E-11  0.697E-08    9.98  100000.0  T
     SCC iter.                  ...        0 min,  0.000 sec
     gradient                   ...        0 min,  0.000 sec
 * total energy  :    -4.2739028 Eh     change       -0.9283269E-07 Eh
   gradient norm :     0.0001538 Eh/α   predicted    -0.1274493E-06 (  37.29%)
   displ. norm   :     0.0004337 α      lambda       -0.4730637E-07
   maximum displ.:     0.0004333 α      in ANC's #6, #4, #3, ...

   *** GEOMETRY OPTIMIZATION CONVERGED AFTER 4 ITERATIONS ***

------------------------------------------------------------------------
 total energy gain   :        -0.0012590 Eh       -0.7901 kcal/mol
 total RMSD          :         0.0383542 a0        0.0203 Å
 total power (kW/mol):        -0.8263994 (step) -851.0638 (real)
------------------------------------------------------------------------

 ANCopt (total)                0 d,  0 h,  0 min,  0.004 sec
 optimizer setup                ...        0 min,  0.000 sec (  2.545%)
 model hessian                  ...        0 min,  0.000 sec (  2.883%)
 ANC generation                 ...        0 min,  0.000 sec (  1.497%)
 coordinate transformation      ...        0 min,  0.000 sec (  0.184%)
 single point calculation       ...        0 min,  0.003 sec ( 74.883%)
 optimization log               ...        0 min,  0.000 sec (  3.674%)
 hessian update                 ...        0 min,  0.000 sec (  1.858%)
 rational function              ...        0 min,  0.000 sec (  8.207%)

================
 final structure:
================
5
 xtb: 6.6.0 (conda-forge)
C           -0.00004127791539       -0.00001945805503        0.00002497709156
H           -0.60556086238673        0.13845029696725        0.89168289116698
H           -0.39160182509028       -0.83265365093727       -0.57815057551414
H           -0.02935459689049        0.90441459340180       -0.60169430205311
H            1.02645856228289       -0.21009178137675        0.28823700930871

 Bond Distances (Angstroems)
 ---------------------------
C1-H2=1.0867         C1-H3=1.0867         C1-H4=1.0867         C1-H5=1.0867         H2-C1=1.0867         H3-C1=1.0867         
H4-C1=1.0867         H5-C1=1.0867         
 C  H  Rav=1.0867 sigma=0.0000  Rmin=1.0867  Rmax=1.0867     4

 selected bond angles (degree)
 --------------------
H3-C1-H2=109.48                H4-C1-H2=109.47                H4-C1-H3=109.47                H5-C1-H2=109.47                
H5-C1-H3=109.47                H5-C1-H4=109.46                

 selected dihedral angles (degree)
 ---------------------------------

           -------------------------------------------------
          |                Final Singlepoint                |
           -------------------------------------------------

          ...................................................
          :                      SETUP                      :
          :.................................................:
          :  # basis functions                  12          :
          :  # atomic orbitals                  12          :
          :  # shells                           10          :
          :  # electrons                         8          :
          :  # halogen bonds                     0          :
          :  max. iterations                   250          :
          :  Hamiltonian                  GFN1-xTB          :
          :  restarted?                      false          :
          :  GBSA solvation                   true          :
          :  PC potential                    false          :
          :  electronic temp.          300.0000000     K    :
          :  accuracy                    1.0000000          :
          :  -> integral cutoff          0.2500000E+02      :
          :  -> integral neglect         0.1000000E-07      :
          :  -> SCF convergence          0.1000000E-05 Eh   :
          :  -> wf. convergence          0.2000000E-04 e    :
          :  Broyden damping             0.4000000          :
          ...................................................

 iter      E             dE          RMSdq      gap      omega  full diag
   1     -4.3414612 -0.434146E+01  0.174E-08    9.98       0.0  T
   2     -4.3414612  0.177636E-14  0.763E-09    9.98  100000.0  T
   3     -4.3414612 -0.177636E-14  0.177E-10    9.98  100000.0  T

   *** convergence criteria satisfied after 3 iterations ***

         #    Occupation            Energy/Eh            Energy/eV
      -------------------------------------------------------------
         1        2.0000           -0.6271791             -17.0664
         2        2.0000           -0.5130963             -13.9621
         3        2.0000           -0.5130913             -13.9619
         4        2.0000           -0.5130823             -13.9617 (HOMO)
         5                         -0.1461473              -3.9769 (LUMO)
         6                         -0.0594055              -1.6165
         7                         -0.0594033              -1.6164
         8                         -0.0594000              -1.6164
         9                          0.2731723               7.4334
       ...                                ...                  ...
        12                          0.5233785              14.2419
      -------------------------------------------------------------
                  HL-Gap            0.3669350 Eh            9.9848 eV
             Fermi-level           -0.3296148 Eh           -8.9693 eV

 SCC (total)                   0 d,  0 h,  0 min,  0.001 sec
 SCC setup                      ...        0 min,  0.000 sec ( 11.008%)
 Dispersion                     ...        0 min,  0.000 sec (  5.288%)
 classical contributions        ...        0 min,  0.000 sec (  2.394%)
 integral evaluation            ...        0 min,  0.000 sec ( 15.630%)
 iterations                     ...        0 min,  0.000 sec ( 12.005%)
 molecular gradient             ...        0 min,  0.000 sec ( 48.819%)
 printout                       ...        0 min,  0.000 sec (  3.924%)

         :::::::::::::::::::::::::::::::::::::::::::::::::::::
         ::                     SUMMARY                     ::
         :::::::::::::::::::::::::::::::::::::::::::::::::::::
         :: total energy              -4.273902778340 Eh    ::
         :: total w/o Gsasa/hb        -4.274288105503 Eh    ::
         :: gradient norm              0.000155395404 Eh/a0 ::
         :: HOMO-LUMO gap              9.984809349144 eV    ::
         ::.................................................::
         :: SCC energy                -4.341461165162 Eh    ::
         :: -> electrostatic           0.000093655978 Eh    ::
         :: -> Gsolv                   0.000367233001 Eh    ::
         ::    -> Gelec               -0.000018094163 Eh    ::
         ::    -> Gsasa               -0.004670831015 Eh    ::
         ::    -> Ghb                  0.000000000000 Eh    ::
         ::    -> Gshift               0.005056158178 Eh    ::
         :: repulsion energy           0.068013129214 Eh    ::
         :: dispersion energy         -0.000454742392 Eh    ::
         :: halogen bond corr.         0.000000000000 Eh    ::
         :: add. restraining           0.000000000000 Eh    ::
         :: total charge              -0.000000000000 e     ::
         :::::::::::::::::::::::::::::::::::::::::::::::::::::

           -------------------------------------------------
          |                Property Printout                |
           -------------------------------------------------

    * Orbital Energies and Occupations

         #    Occupation            Energy/Eh            Energy/eV
      -------------------------------------------------------------
         1        2.0000           -0.6271791             -17.0664
         2        2.0000           -0.5130963             -13.9621
         3        2.0000           -0.5130913             -13.9619
         4        2.0000           -0.5130823             -13.9617 (HOMO)
         5                         -0.1461473              -3.9769 (LUMO)
         6                         -0.0594055              -1.6165
         7                         -0.0594033              -1.6164
         8                         -0.0594000              -1.6164
         9                          0.2731723               7.4334
        10                          0.2732433               7.4353
        11                          0.2732783               7.4363
        12                          0.5233785              14.2419
      -------------------------------------------------------------
                  HL-Gap            0.3669350 Eh            9.9848 eV
             Fermi-level           -0.3296148 Eh           -8.9693 eV

  Mulliken/CM5 charges         n(s)   n(p)   n(d)
     1C    -0.13239 -0.32506   0.985  3.147  0.000
     2H     0.03310  0.08127   0.967  0.000  0.000
     3H     0.03310  0.08127   0.967  0.000  0.000
     4H     0.03309  0.08126   0.967  0.000  0.000
     5H     0.03310  0.08127   0.967  0.000  0.000

Wiberg/Mayer (AO) data.
largest (>0.10) Wiberg bond orders for each atom

 ---------------------------------------------------------------------------
     #   Z sym  total        # sym  WBO       # sym  WBO       # sym  WBO
 ---------------------------------------------------------------------------
     1   6 C    3.993 --     2 H    0.998     5 H    0.998     4 H    0.998
                             3 H    0.998
     2   1 H    1.001 --     1 C    0.998
     3   1 H    1.001 --     1 C    0.998
     4   1 H    1.001 --     1 C    0.998
     5   1 H    1.001 --     1 C    0.998
 ---------------------------------------------------------------------------

Topologies differ in total number of bonds
Writing topology from bond orders to xtbtopo.mol

 dipole moment from electron density (au)
     X       Y       Z   
   0.0000   0.0000  -0.0000  total (Debye):    0.000

           -------------------------------------------------
          |                Geometry Summary                 |
           -------------------------------------------------

      molecular mass/u    :       16.0424989
   center of mass at/Å    :       -0.0000346      -0.0000071       0.0000234
  moments of inertia/u·Å² :        0.3173941E+01   0.3174049E+01   0.3174215E+01
rotational constants/cm⁻¹ :        0.5311263E+01   0.5311081E+01   0.5310804E+01

 * 4 selected distances

     #   Z          #   Z                                           value/Å
     1   6 C        2   1 H                                       1.0866839 (min)
     1   6 C        3   1 H                                       1.0866860
     1   6 C        4   1 H                                       1.0867044 (max)
     1   6 C        5   1 H                                       1.0866916

 * 1 distinct bonds (by element types)

   Z      Z             #   av. dist./Å        max./Å        min./Å
   1 H    6 C           4     1.0866915     1.0867044     1.0866839


optimized geometry written to: xtbopt.xyz


           -------------------------------------------------
          | TOTAL ENERGY               -4.273902778340 Eh   |
          | GRADIENT NORM               0.000155395404 Eh/α |
          | HOMO-LUMO GAP               9.984809349144 eV   |
           -------------------------------------------------
########################################################################
[WARNING] Runtime exception occurred
-2- restart_readRestart: Multiplicity missmatch in restart file.
-1- restart_readRestart: Number of electron missmatch in restart file.
########################################################################

------------------------------------------------------------------------
 * finished run on 2024/09/04 at 15:46:44.104     
------------------------------------------------------------------------
 total:
 * wall-time:     0 d,  0 h,  0 min,  0.186 sec
 *  cpu-time:     0 d,  0 h,  0 min,  1.368 sec
 * ratio c/w:     7.358 speedup
 SCF:
 * wall-time:     0 d,  0 h,  0 min,  0.003 sec
 *  cpu-time:     0 d,  0 h,  0 min,  0.026 sec
 * ratio c/w:     7.392 speedup
 ANC optimizer:
 * wall-time:     0 d,  0 h,  0 min,  0.005 sec
 *  cpu-time:     0 d,  0 h,  0 min,  0.033 sec
 * ratio c/w:     6.334 speedup

