      -----------------------------------------------------------      
     |                   =====================                   |     
     |                           x T B                           |     
     |                   =====================                   |     
     |                         S. Grimme                         |     
     |          Mulliken Center for Theoretical Chemistry        |     
     |                    University of Bonn                     |     
      -----------------------------------------------------------      

   * xtb version 6.6.0 (conda-forge) compiled by 'runner@Mac-1676020848589.local' on 2023-02-10

   xtb is free software: you can redistribute it and/or modify it under
   the terms of the GNU Lesser General Public License as published by
   the Free Software Foundation, either version 3 of the License, or
   (at your option) any later version.
   
   xtb is distributed in the hope that it will be useful,
   but WITHOUT ANY WARRANTY; without even the implied warranty of
   MERCHANTABILITY or FITNESS FOR A PARTICULAR PURPOSE.  See the
   GNU Lesser General Public License for more details.
   
   Cite this work as:
   * C. Bannwarth, E. Caldeweyher, S. Ehlert, A. Hansen, P. Pracht,
     J. Seibert, S. Spicher, S. Grimme, WIREs Comput. Mol. Sci., 2020, 11,
     e01493. DOI: 10.1002/wcms.1493
   
   for GFN2-xTB:
   * C. Bannwarth, S. Ehlert and S. Grimme., J. Chem. Theory Comput., 2019,
     15, 1652-1671. DOI: 10.1021/acs.jctc.8b01176
   for GFN1-xTB:
   * S. Grimme, C. Bannwarth, P. Shushkov, J. Chem. Theory Comput., 2017,
     13, 1989-2009. DOI: 10.1021/acs.jctc.7b00118
   for GFN0-xTB:
   * P. Pracht, E. Caldeweyher, S. Ehlert, S. Grimme, ChemRxiv, 2019, preprint.
     DOI: 10.26434/chemrxiv.8326202.v1
   for GFN-FF:
   * S. Spicher and S. Grimme, Angew. Chem. Int. Ed., 2020, 59, 15665-15673.
     DOI: 10.1002/anie.202004239
   
   for ALPB and GBSA implicit solvation:
   * S. Ehlert, M. Stahn, S. Spicher, S. Grimme, J. Chem. Theory Comput.,
     2021, 17, 4250-4261. DOI: 10.1021/acs.jctc.1c00471
   
   for DFT-D4:
   * E. Caldeweyher, C. Bannwarth and S. Grimme, J. Chem. Phys., 2017,
     147, 034112. DOI: 10.1063/1.4993215
   * E. Caldeweyher, S. Ehlert, A. Hansen, H. Neugebauer, S. Spicher,
     C. Bannwarth and S. Grimme, J. Chem. Phys., 2019, 150, 154122.
     DOI: 10.1063/1.5090222
   * E. Caldeweyher, J.-M. Mewes, S. Ehlert and S. Grimme, Phys. Chem. Chem. Phys.
     2020, 22, 8499-8512. DOI: 10.1039/D0CP00502A
   
   for sTDA-xTB:
   * S. Grimme and C. Bannwarth, J. Chem. Phys., 2016, 145, 054103.
     DOI: 10.1063/1.4959605
   
   in the mass-spec context:
   * V. Asgeirsson, C. Bauer and S. Grimme, Chem. Sci., 2017, 8, 4879.
     DOI: 10.1039/c7sc00601b
   * J. Koopman and S. Grimme, ACS Omega 2019, 4, 12, 15120-15133.
     DOI: 10.1021/acsomega.9b02011
   
   for metadynamics refer to:
   * S. Grimme, J. Chem. Theory Comput., 2019, 155, 2847-2862
     DOI: 10.1021/acs.jctc.9b00143
   
   for SPH calculations refer to:
   * S. Spicher and S. Grimme, J. Chem. Theory Comput., 2021, 17, 1701-1714
     DOI: 10.1021/acs.jctc.0c01306
   
   with help from (in alphabetical order)
   P. Atkinson, C. Bannwarth, F. Bohle, G. Brandenburg, E. Caldeweyher
   M. Checinski, S. Dohm, S. Ehlert, S. Ehrlich, I. Gerasimov, C. Hölzer
   A. Katbashev, J. Koopman, C. Lavigne, S. Lehtola, F. März, M. Müller,
   F. Musil, H. Neugebauer, J. Pisarek, C. Plett, P. Pracht, F. Pultar,
   J. Seibert, P. Shushkov, S. Spicher, M. Stahn, M. Steiner, T. Strunk,
   J. Stückrath, T. Rose, and J. Unsleber
   
 * started run on 2024/09/04 at 15:55:54.617     

           -------------------------------------------------
          |                Calculation Setup                |
           -------------------------------------------------

          program call               : xtb input_molecule.xyz --gfnff --chrg 0 --opt
          coordinate file            : input_molecule.xyz
          omp threads                :                     8

   ID    Z sym.   atoms
    1    6 C      1-4
    2    1 H      5-14

          ==================== Thresholds ====================
          CN  :   150.00000
          rep :   500.00000
          disp:  2500.00000
          HB1 :   250.00000
          HB2 :   450.00000

          Pauling EN used:
          Z : 1  EN :  2.20
          Z : 6  EN :  2.55
          electric field strengths (au): 0.000

           ------------------------------------------------- 
          |           Force Field Initialization            |
           ------------------------------------------------- 

          distances ...
          ----------------------------------------
          generating topology and atomic info file ...
          pair mat ...
          computing topology distances matrix with Floyd-Warshall algo ...
          making topology EEQ charges ...
          #fragments for EEQ constrain: 1
          fragment charges from <charges> : -0.000
          ----------------------------------------
          generating topology and atomic info file ...
          pair mat ...
          computing topology distances matrix with Floyd-Warshall algo ...
          making topology EEQ charges ...
          #fragments for EEQ constrain: 1
          fragment charges from <charges> : -0.000
          rings ...
          # BATM   90
          # H in HB   0

  atom   neighbors  erfCN metchar sp-hybrid imet pi  qest     coordinates
    1  C       4    3.48   0.00         3    0    0  -0.056   -3.633754   -0.222043    0.801622
    2  C       4    3.48   0.00         3    0    0  -0.038   -0.877589    0.232814    1.516127
    3  C       4    3.48   0.00         3    0    0  -0.038    0.877589   -0.232814   -0.740017
    4  C       4    3.48   0.00         3    0    0  -0.056    3.633754    0.222043   -0.025511
    5  H       1    0.97   0.01         0    0    0   0.019   -3.906442   -2.206822    0.174044
    6  H       1    0.97   0.01         0    0    0   0.019   -4.858675    0.128690    2.468927
    7  H       1    0.97   0.01         0    0    0   0.019   -4.211444    1.079034   -0.741340
    8  H       1    0.97   0.01         0    0    0   0.018   -0.362449   -1.057113    3.092915
    9  H       1    0.97   0.01         0    0    0   0.018   -0.666128    2.214759    2.181311
   10  H       1    0.97   0.01         0    0    0   0.018    0.362449    1.057113   -2.316804
   11  H       1    0.97   0.01         0    0    0   0.018    0.666128   -2.214759   -1.405200
   12  H       1    0.97   0.01         0    0    0   0.019    3.906442    2.206822    0.602067
   13  H       1    0.97   0.01         0    0    0   0.019    4.211444   -1.079034    1.517450
   14  H       1    0.97   0.01         0    0    0   0.019    4.858675   -0.128690   -1.692628

          #atoms :   14
          #bonds :   13
          #angl  :   24
          #tors  :   28
          #nmol  :   1
          #optfrag :   1
           ------------------------------------------------- 
          |                   G F N - F F                   |
          |          A general generic force-field          |
          |                  Version 1.0.3                  | 
           ------------------------------------------------- 
          Number of HB bonds (bound hydrogen)     0
          Number of HB bonds (unbound hydrogen)   0
          Number of XB bonds                      0

 E+G (total)                   0 d,  0 h,  0 min,  0.001 sec
 distance/D3 list               ...        0 min,  0.000 sec (  0.374%)
 non bonded repulsion           ...        0 min,  0.000 sec ( 25.966%)
 dCN                            ...        0 min,  0.000 sec (  2.991%)
 EEQ energy and q               ...        0 min,  0.000 sec ( 19.526%)
 D3                             ...        0 min,  0.000 sec ( 12.007%)
 EEQ gradient                   ...        0 min,  0.000 sec (  8.392%)
 bonds                          ...        0 min,  0.000 sec ( 11.342%)
 bend and torsion               ...        0 min,  0.000 sec (  6.980%)
 bonded ATM                     ...        0 min,  0.000 sec (  5.069%)
 HB/XB (incl list setup)        ...        0 min,  0.000 sec (  4.321%)

         :::::::::::::::::::::::::::::::::::::::::::::::::::::
         ::                     SUMMARY                     ::
         :::::::::::::::::::::::::::::::::::::::::::::::::::::
         :: total energy              -1.956306329501 Eh    ::
         :: gradient norm              0.035584868571 Eh/a0 ::
         ::.................................................::
         :: bond energy               -2.044493733305 Eh    ::
         :: angle energy               0.000206360561 Eh    ::
         :: torsion energy             0.000004354350 Eh    ::
         :: repulsion energy           0.097833849081 Eh    ::
         :: electrostat energy        -0.004108766360 Eh    ::
         :: dispersion energy         -0.005734851725 Eh    ::
         :: HB energy                  0.000000000000 Eh    ::
         :: XB energy                  0.000000000000 Eh    ::
         :: bonded atm energy         -0.000013542103 Eh    ::
         :: external energy            0.000000000000 Eh    ::
         :: add. restraining           0.000000000000 Eh    ::
         :: total charge               0.000000000000 e     ::
         :::::::::::::::::::::::::::::::::::::::::::::::::::::

      ----------------------------------------------------------- 
     |                   =====================                   |
     |                        A N C O P T                        |
     |                   =====================                   |
     |               Approximate Normal Coordinate               |
     |                Rational Function Optimizer                |
      ----------------------------------------------------------- 

          ...................................................
          :                      SETUP                      :
          :.................................................:
          :   optimization level            normal          :
          :   max. optcycles                   200          :
          :   ANC micro-cycles                  20          :
          :   degrees of freedom                36          :
          :.................................................:
          :   RF solver                   davidson          :
          :   write xtbopt.log                true          :
          :   linear?                        false          :
          :   energy convergence         0.5000000E-05 Eh   :
          :   grad. convergence          0.1000000E-02 Eh/α :
          :   maxmium RF displ.          1.0000000          :
          :   Hlow (freq-cutoff)         0.1000000E-01      :
          :   Hmax (freq-cutoff)         5.0000000          :
          :   S6 in model hess.         20.0000000          :
          ...................................................

generating ANC from model Hessian ...
Using GFN-FF Lindh-Hessian
 Shifting diagonal of input Hessian by    5.2617971814784090E-003
 Lowest  eigenvalues of input Hessian
    0.000000    0.000000    0.000000    0.000000    0.000000    0.000000
    0.010000    0.012097    0.016018    0.016041    0.029939    0.063080
    0.077563    0.087147    0.093656    0.097624    0.100198    0.124660
 Highest eigenvalues
    1.323205    1.403715    1.427898    1.498076    1.526995    1.596050


........................................................................
.............................. CYCLE    1 ..............................
........................................................................
 * total energy  :    -1.9563063 Eh     change        0.0000000E+00 Eh
   gradient norm :     0.0355849 Eh/α   predicted     0.0000000E+00 (    NaN%)
   displ. norm   :     0.1121457 α      lambda       -0.3369591E-02
   maximum displ.:     0.0839657 α      in ANC's #24, #8, #5, ...

........................................................................
.............................. CYCLE    2 ..............................
........................................................................
 * total energy  :    -1.9586901 Eh     change       -0.2383788E-02 Eh
   gradient norm :     0.0148558 Eh/α   predicted    -0.1705985E-02 ( -28.43%)
   displ. norm   :     0.0983225 α      lambda       -0.1122830E-02
   maximum displ.:     0.0588949 α      in ANC's #24, #8, #5, ...

........................................................................
.............................. CYCLE    3 ..............................
........................................................................
 * total energy  :    -1.9592873 Eh     change       -0.5971353E-03 Eh
   gradient norm :     0.0058092 Eh/α   predicted    -0.5668426E-03 (  -5.07%)
   displ. norm   :     0.0192866 α      lambda       -0.5142546E-04
   maximum displ.:     0.0115745 α      in ANC's #14, #8, #10, ...

........................................................................
.............................. CYCLE    4 ..............................
........................................................................
 * total energy  :    -1.9593241 Eh     change       -0.3686782E-04 Eh
   gradient norm :     0.0029621 Eh/α   predicted    -0.2572284E-04 ( -30.23%)
   displ. norm   :     0.0131532 α      lambda       -0.2076301E-04
   maximum displ.:     0.0098901 α      in ANC's #14, #10, #8, ...

........................................................................
.............................. CYCLE    5 ..............................
........................................................................
 * total energy  :    -1.9593349 Eh     change       -0.1073277E-04 Eh
   gradient norm :     0.0002429 Eh/α   predicted    -0.1038260E-04 (  -3.26%)
   displ. norm   :     0.0028282 α      lambda       -0.2961777E-06
   maximum displ.:     0.0020160 α      in ANC's #8, #5, #14, ...

........................................................................
.............................. CYCLE    6 ..............................
........................................................................
 * total energy  :    -1.9593351 Eh     change       -0.2546278E-06 Eh
   gradient norm :     0.0000926 Eh/α   predicted    -0.1490281E-06 ( -41.47%)
   displ. norm   :     0.0009015 α      lambda       -0.3369721E-07
   maximum displ.:     0.0006711 α      in ANC's #8, #5, #10, ...

   *** GEOMETRY OPTIMIZATION CONVERGED AFTER 6 ITERATIONS ***

------------------------------------------------------------------------
 total energy gain   :        -0.0030288 Eh       -1.9006 kcal/mol
 total RMSD          :         0.0606497 a0        0.0321 Å
 total power (kW/mol):        -1.3253430 (step)-1607.0805 (real)
------------------------------------------------------------------------

 ANCopt (total)                0 d,  0 h,  0 min,  0.005 sec
 optimizer setup                ...        0 min,  0.000 sec (  6.941%)
 model hessian                  ...        0 min,  0.001 sec ( 23.297%)
 ANC generation                 ...        0 min,  0.001 sec ( 21.444%)
 coordinate transformation      ...        0 min,  0.000 sec (  0.385%)
 single point calculation       ...        0 min,  0.001 sec ( 22.773%)
 optimization log               ...        0 min,  0.000 sec (  5.555%)
 hessian update                 ...        0 min,  0.000 sec (  1.771%)
 rational function              ...        0 min,  0.001 sec ( 13.367%)

================
 final structure:
================
14
 xtb: 6.6.0 (conda-forge)
C           -1.93268106271266       -0.11585926715079        0.43341016562853
C           -0.47406859368779        0.11996239845800        0.79390211645762
C            0.47406493285120       -0.11996225933568       -0.38318786997162
C            1.93268350303246        0.11585905337857       -0.02269673580684
H           -2.09529303478544       -1.14105615733096        0.09393831226035
H           -2.59961043239228        0.05849102075025        1.28145003002687
H           -2.25176331135740        0.54464486450723       -0.37568385806316
H           -0.18207200946439       -0.52713682259247        1.63227198391164
H           -0.33721469835046        1.14427286222269        1.16662520149789
H            0.18207054541164        0.52716237307532       -1.22153791046921
H            0.33721589837091       -1.14428332396552       -0.75588139695651
H            2.09530162255100        1.14106079074610        0.31675591493395
H            2.25177215446733       -0.54465685517985        0.78638446722500
H            2.59959448606590       -0.05849867758288       -0.87075042067450

 Bond Distances (Angstroems)
 ---------------------------
C1-C2=1.5209         C1-H5=1.0921         C1-H6=1.0929         C1-H7=1.0921         C2-C1=1.5209         C2-C3=1.5304         
C2-H8=1.0986         C2-H9=1.0986         C3-C2=1.5304         C3-C4=1.5209         C3-H10=1.0986        C3-H11=1.0986        
C4-C3=1.5209         C4-H12=1.0921        C4-H13=1.0921        C4-H14=1.0929        H5-C1=1.0921         H6-C1=1.0929         
H7-C1=1.0921         H8-C2=1.0986         H9-C2=1.0986         H10-C3=1.0986        H11-C3=1.0986        H12-C4=1.0921        
H13-C4=1.0921        H14-C4=1.0929        
 C  H  Rav=1.0948 sigma=0.0031  Rmin=1.0921  Rmax=1.0986    10
 C  C  Rav=1.5241 sigma=0.0045  Rmin=1.5209  Rmax=1.5304     3

 selected bond angles (degree)
 --------------------
H5-C1-C2=111.22                H6-C1-C2=112.12                H6-C1-H5=107.46                H7-C1-C2=111.22                
H7-C1-H5=107.09                H7-C1-H6=107.46                C3-C2-C1=112.80                H8-C2-C1=110.15                
H8-C2-C3=109.27                H9-C2-C1=110.15                H9-C2-C3=109.27                H9-C2-H8=104.90                
C4-C3-C2=112.80                H10-C3-C2=109.27               H10-C3-C4=110.15               H11-C3-C2=109.27               
H11-C3-C4=110.15               H11-C3-H10=104.91              H12-C4-C3=111.23               H13-C4-C3=111.22               
H13-C4-H12=107.10              H14-C4-C3=112.12               H14-C4-H12=107.46              H14-C4-H13=107.46              

 selected dihedral angles (degree)
 ---------------------------------
C3-C2-C1-H5= 59.64            C3-C2-C1-H6=180.00            C3-C2-C1-H7=300.36            H8-C2-C1-H5=297.26            
H8-C2-C1-H6= 57.62            H8-C2-C1-H7=177.98            H9-C2-C1-H5=182.02            H9-C2-C1-H6=302.38            
H9-C2-C1-H7= 62.74            C4-C3-C2-C1=180.00            C4-C3-C2-H8=302.87            C4-C3-C2-H9= 57.13            
H10-C3-C2-C1= 57.13           H10-C3-C2-H8=180.00           H10-C3-C2-H9=294.26           H11-C3-C2-C1=302.87           
H11-C3-C2-H8= 65.74           H11-C3-C2-H9=180.00           H12-C4-C3-C2=300.36           H12-C4-C3-H10= 62.73          
H12-C4-C3-H11=177.98          H13-C4-C3-C2= 59.64           H13-C4-C3-H10=182.02          H13-C4-C3-H11=297.27          
H14-C4-C3-C2=180.00           H14-C4-C3-H10=302.38          H14-C4-C3-H11= 57.62          
           -------------------------------------------------
          |                Final Singlepoint                |
           -------------------------------------------------
         :::::::::::::::::::::::::::::::::::::::::::::::::::::
         ::                     SUMMARY                     ::
         :::::::::::::::::::::::::::::::::::::::::::::::::::::
         :: total energy              -1.959335108351 Eh    ::
         :: gradient norm              0.000092641768 Eh/a0 ::
         ::.................................................::
         :: bond energy               -2.057189621195 Eh    ::
         :: angle energy               0.001486357489 Eh    ::
         :: torsion energy             0.000047247734 Eh    ::
         :: repulsion energy           0.106227692898 Eh    ::
         :: electrostat energy        -0.004178550125 Eh    ::
         :: dispersion energy         -0.005717554472 Eh    ::
         :: HB energy                  0.000000000000 Eh    ::
         :: XB energy                  0.000000000000 Eh    ::
         :: bonded atm energy         -0.000010680680 Eh    ::
         :: external energy            0.000000000000 Eh    ::
         :: add. restraining           0.000000000000 Eh    ::
         :: total charge              -0.000000000000 e     ::
         :::::::::::::::::::::::::::::::::::::::::::::::::::::

           -------------------------------------------------
          |                Property Printout                |
           -------------------------------------------------
           -------------------------------------------------
          |                Geometry Summary                 |
           -------------------------------------------------

      molecular mass/u    :       58.1223511
   center of mass at/Å    :       -0.0000002      -0.0000000       0.2053570
  moments of inertia/u·Å² :        0.2157900E+02   0.1383814E+03   0.1476208E+03
rotational constants/cm⁻¹ :        0.7812055E+00   0.1218201E+00   0.1141955E+00

 * 13 selected distances

     #   Z          #   Z                                           value/Å
     1   6 C        2   6 C                                       1.5208935
     2   6 C        3   6 C                                       1.5303798 (max)
     3   6 C        4   6 C                                       1.5208991
     1   6 C        5   1 H                                       1.0921139
     1   6 C        6   1 H                                       1.0928699
     1   6 C        7   1 H                                       1.0921138
     2   6 C        8   1 H                                       1.0985735
     2   6 C        9   1 H                                       1.0985735
     3   6 C       10   1 H                                       1.0985727
     3   6 C       11   1 H                                       1.0985727
     4   6 C       12   1 H                                       1.0921134
     4   6 C       13   1 H                                       1.0921133 (min)
     4   6 C       14   1 H                                       1.0928706

 * 2 distinct bonds (by element types)

   Z      Z             #   av. dist./Å        max./Å        min./Å
   1 H    6 C          10     1.0948487     1.0985735     1.0921133
   6 C    6 C           3     1.5240575     1.5303798     1.5208935


optimized geometry written to: xtbopt.xyz


           -------------------------------------------------
          | TOTAL ENERGY               -1.959335108351 Eh   |
          | GRADIENT NORM               0.000092641768 Eh/α |
           -------------------------------------------------
########################################################################
[WARNING] Runtime exception occurred
-2- gfnff_setup: Could not read topology file.
-1- restart_read_restart_gff: Atom number missmatch in restart file.
########################################################################

------------------------------------------------------------------------
 * finished run on 2024/09/04 at 15:55:54.806     
------------------------------------------------------------------------
 total:
 * wall-time:     0 d,  0 h,  0 min,  0.188 sec
 *  cpu-time:     0 d,  0 h,  0 min,  1.351 sec
 * ratio c/w:     7.173 speedup
 SCF:
 * wall-time:     0 d,  0 h,  0 min,  0.002 sec
 *  cpu-time:     0 d,  0 h,  0 min,  0.011 sec
 * ratio c/w:     6.061 speedup
 ANC optimizer:
 * wall-time:     0 d,  0 h,  0 min,  0.006 sec
 *  cpu-time:     0 d,  0 h,  0 min,  0.036 sec
 * ratio c/w:     5.711 speedup

