      -----------------------------------------------------------      
     |                   =====================                   |     
     |                           x T B                           |     
     |                   =====================                   |     
     |                         S. Grimme                         |     
     |          Mulliken Center for Theoretical Chemistry        |     
     |                    University of Bonn                     |     
      -----------------------------------------------------------      

   * xtb version 6.6.0 (conda-forge) compiled by 'runner@Mac-1676020848589.local' on 2023-02-10

   xtb is free software: you can redistribute it and/or modify it under
   the terms of the GNU Lesser General Public License as published by
   the Free Software Foundation, either version 3 of the License, or
   (at your option) any later version.
   
   xtb is distributed in the hope that it will be useful,
   but WITHOUT ANY WARRANTY; without even the implied warranty of
   MERCHANTABILITY or FITNESS FOR A PARTICULAR PURPOSE.  See the
   GNU Lesser General Public License for more details.
   
   Cite this work as:
   * C. Bannwarth, E. Caldeweyher, S. Ehlert, A. Hansen, P. Pracht,
     J. Seibert, S. Spicher, S. Grimme, WIREs Comput. Mol. Sci., 2020, 11,
     e01493. DOI: 10.1002/wcms.1493
   
   for GFN2-xTB:
   * C. Bannwarth, S. Ehlert and S. Grimme., J. Chem. Theory Comput., 2019,
     15, 1652-1671. DOI: 10.1021/acs.jctc.8b01176
   for GFN1-xTB:
   * S. Grimme, C. Bannwarth, P. Shushkov, J. Chem. Theory Comput., 2017,
     13, 1989-2009. DOI: 10.1021/acs.jctc.7b00118
   for GFN0-xTB:
   * P. Pracht, E. Caldeweyher, S. Ehlert, S. Grimme, ChemRxiv, 2019, preprint.
     DOI: 10.26434/chemrxiv.8326202.v1
   for GFN-FF:
   * S. Spicher and S. Grimme, Angew. Chem. Int. Ed., 2020, 59, 15665-15673.
     DOI: 10.1002/anie.202004239
   
   for ALPB and GBSA implicit solvation:
   * S. Ehlert, M. Stahn, S. Spicher, S. Grimme, J. Chem. Theory Comput.,
     2021, 17, 4250-4261. DOI: 10.1021/acs.jctc.1c00471
   
   for DFT-D4:
   * E. Caldeweyher, C. Bannwarth and S. Grimme, J. Chem. Phys., 2017,
     147, 034112. DOI: 10.1063/1.4993215
   * E. Caldeweyher, S. Ehlert, A. Hansen, H. Neugebauer, S. Spicher,
     C. Bannwarth and S. Grimme, J. Chem. Phys., 2019, 150, 154122.
     DOI: 10.1063/1.5090222
   * E. Caldeweyher, J.-M. Mewes, S. Ehlert and S. Grimme, Phys. Chem. Chem. Phys.
     2020, 22, 8499-8512. DOI: 10.1039/D0CP00502A
   
   for sTDA-xTB:
   * S. Grimme and C. Bannwarth, J. Chem. Phys., 2016, 145, 054103.
     DOI: 10.1063/1.4959605
   
   in the mass-spec context:
   * V. Asgeirsson, C. Bauer and S. Grimme, Chem. Sci., 2017, 8, 4879.
     DOI: 10.1039/c7sc00601b
   * J. Koopman and S. Grimme, ACS Omega 2019, 4, 12, 15120-15133.
     DOI: 10.1021/acsomega.9b02011
   
   for metadynamics refer to:
   * S. Grimme, J. Chem. Theory Comput., 2019, 155, 2847-2862
     DOI: 10.1021/acs.jctc.9b00143
   
   for SPH calculations refer to:
   * S. Spicher and S. Grimme, J. Chem. Theory Comput., 2021, 17, 1701-1714
     DOI: 10.1021/acs.jctc.0c01306
   
   with help from (in alphabetical order)
   P. Atkinson, C. Bannwarth, F. Bohle, G. Brandenburg, E. Caldeweyher
   M. Checinski, S. Dohm, S. Ehlert, S. Ehrlich, I. Gerasimov, C. Hölzer
   A. Katbashev, J. Koopman, C. Lavigne, S. Lehtola, F. März, M. Müller,
   F. Musil, H. Neugebauer, J. Pisarek, C. Plett, P. Pracht, F. Pultar,
   J. Seibert, P. Shushkov, S. Spicher, M. Stahn, M. Steiner, T. Strunk,
   J. Stückrath, T. Rose, and J. Unsleber
   
 * started run on 2024/09/05 at 11:50:49.127     

           -------------------------------------------------
          |                Calculation Setup                |
           -------------------------------------------------

          program call               : xtb input_molecule.xyz --gfn2 --chrg 0 --opt --alpb water
          coordinate file            : input_molecule.xyz
          omp threads                :                     8

   ID    Z sym.   atoms
    1    6 C      1-4, 7-12, 14, 17, 18, 20, 22, 23, 25-27
    2    7 N      5, 16, 19
    3    8 O      6, 15, 21, 28, 29
    4   17 Cl     13
    5   16 S      24
    6    1 H      30-47

           -------------------------------------------------
          |                 G F N 2 - x T B                 |
           -------------------------------------------------

        Reference                      10.1021/acs.jctc.8b01176
      * Hamiltonian:
        H0-scaling (s, p, d)           1.850000    2.230000    2.230000
        zeta-weighting                 0.500000
      * Dispersion:
        s8                             2.700000
        a1                             0.520000
        a2                             5.000000
        s9                             5.000000
      * Repulsion:
        kExp                           1.500000    1.000000
        rExp                           1.000000
      * Coulomb:
        alpha                          2.000000
        third order                    shell-resolved
        anisotropic                    true
        a3                             3.000000
        a5                             4.000000
        cn-shift                       1.200000
        cn-exp                         4.000000
        max-rad                        5.000000

      * Solvation model:               ALPB
        Solvent                        water
        Parameter file                 internal GFN2-xTB/ALPB
        Dielectric constant                8.0200E+01
        Reference state                gsolv [1 M gas/solution]
        Free energy shift                  1.0808E-03 Eh       6.7819E-01 kcal/mol
        Temperature                        2.9815E+02 K
        Density                            1.0000E+00 kg/L
        Solvent mass                       1.8000E+01 g/mol
        Interaction kernel             P16
        Born radius scaling (c1)           1.4744E+00
        Born radii integrator          GBOBC
        Born offset                        0.0000E+00 a0       0.0000E+00 AA
        H-bond correction              true
        Ion screening                  false
        Surface tension                    1.0000E-05 Eh       1.5569E+01 dyn/cm
        Grid points                               230 per atom
q/qsh data taken from xtbrestart
CAMM data taken from xtbrestart

          ...................................................
          :                      SETUP                      :
          :.................................................:
          :  # basis functions                 146          :
          :  # atomic orbitals                 144          :
          :  # shells                           78          :
          :  # electrons                       152          :
          :  max. iterations                   250          :
          :  Hamiltonian                  GFN2-xTB          :
          :  restarted?                       true          :
          :  GBSA solvation                   true          :
          :  PC potential                    false          :
          :  electronic temp.          300.0000000     K    :
          :  accuracy                    1.0000000          :
          :  -> integral cutoff          0.2500000E+02      :
          :  -> integral neglect         0.1000000E-07      :
          :  -> SCF convergence          0.1000000E-05 Eh   :
          :  -> wf. convergence          0.1000000E-03 e    :
          :  Broyden damping             0.4000000          :
          ...................................................

 iter      E             dE          RMSdq      gap      omega  full diag
   1    -87.5917704 -0.875918E+02  0.513E+00    2.75       0.0  T
   2    -87.6131969 -0.214265E-01  0.289E+00    2.48       1.0  T
   3    -87.6132635 -0.666020E-04  0.618E-01    2.28       1.0  T
   4    -87.6194572 -0.619366E-02  0.302E-01    2.20       1.0  T
   5    -87.6201867 -0.729581E-03  0.118E-01    2.20       1.0  T
   6    -87.6203851 -0.198344E-03  0.601E-02    2.20       1.0  T
   7    -87.6204077 -0.226379E-04  0.326E-02    2.20       1.0  T
   8    -87.6204182 -0.104909E-04  0.180E-02    2.20       1.0  T
   9    -87.6204214 -0.314075E-05  0.119E-02    2.20       1.2  T
  10    -87.6204228 -0.148820E-05  0.723E-03    2.20       2.0  T
  11    -87.6204237 -0.832502E-06  0.428E-03    2.20       3.4  T
  12    -87.6204239 -0.255904E-06  0.213E-03    2.20       6.9  T
  13    -87.6204240 -0.645010E-07  0.117E-03    2.20      12.5  T
  14    -87.6204240 -0.175380E-07  0.655E-04    2.20      22.3  T
  15    -87.6204240 -0.568775E-08  0.399E-04    2.20      36.5  T

   *** convergence criteria satisfied after 15 iterations ***

         #    Occupation            Energy/Eh            Energy/eV
      -------------------------------------------------------------
         1        2.0000           -1.0653112             -28.9886
       ...           ...                  ...                  ...
        70        2.0000           -0.4268528             -11.6153
        71        2.0000           -0.4227880             -11.5046
        72        2.0000           -0.4208876             -11.4529
        73        2.0000           -0.4151274             -11.2962
        74        2.0000           -0.4089442             -11.1279
        75        2.0000           -0.4013020             -10.9200
        76        2.0000           -0.3764283             -10.2431 (HOMO)
        77                         -0.2955384              -8.0420 (LUMO)
        78                         -0.2870265              -7.8104
        79                         -0.2745670              -7.4713
        80                         -0.2592123              -7.0535
        81                         -0.2411645              -6.5624
       ...                                ...                  ...
       144                          0.6355352              17.2938
      -------------------------------------------------------------
                  HL-Gap            0.0808899 Eh            2.2011 eV
             Fermi-level           -0.3359833 Eh           -9.1426 eV

 SCC (total)                   0 d,  0 h,  0 min,  0.065 sec
 SCC setup                      ...        0 min,  0.001 sec (  1.842%)
 Dispersion                     ...        0 min,  0.001 sec (  0.981%)
 classical contributions        ...        0 min,  0.000 sec (  0.253%)
 integral evaluation            ...        0 min,  0.002 sec (  3.475%)
 iterations                     ...        0 min,  0.053 sec ( 81.962%)
 molecular gradient             ...        0 min,  0.007 sec ( 11.179%)
 printout                       ...        0 min,  0.000 sec (  0.285%)

         :::::::::::::::::::::::::::::::::::::::::::::::::::::
         ::                     SUMMARY                     ::
         :::::::::::::::::::::::::::::::::::::::::::::::::::::
         :: total energy             -86.744144684523 Eh    ::
         :: total w/o Gsasa/hb       -86.734204560431 Eh    ::
         :: gradient norm              0.245208254130 Eh/a0 ::
         :: HOMO-LUMO gap              2.201126575585 eV    ::
         ::.................................................::
         :: SCC energy               -87.620424018236 Eh    ::
         :: -> isotropic ES            0.180191062591 Eh    ::
         :: -> anisotropic ES         -0.001490299417 Eh    ::
         :: -> anisotropic XC          0.033942754651 Eh    ::
         :: -> dispersion             -0.059859664013 Eh    ::
         :: -> Gsolv                  -0.044184791486 Eh    ::
         ::    -> Gelec               -0.034244667394 Eh    ::
         ::    -> Gsasa                0.003416808953 Eh    ::
         ::    -> Ghb                 -0.014437692743 Eh    ::
         ::    -> Gshift               0.001080759698 Eh    ::
         :: repulsion energy           0.875476980665 Eh    ::
         :: add. restraining           0.000000000000 Eh    ::
         :: total charge              -0.000000000000 e     ::
         :::::::::::::::::::::::::::::::::::::::::::::::::::::

      ----------------------------------------------------------- 
     |                   =====================                   |
     |                        A N C O P T                        |
     |                   =====================                   |
     |               Approximate Normal Coordinate               |
     |                Rational Function Optimizer                |
      ----------------------------------------------------------- 

          ...................................................
          :                      SETUP                      :
          :.................................................:
          :   optimization level            normal          :
          :   max. optcycles                   200          :
          :   ANC micro-cycles                  20          :
          :   degrees of freedom               135          :
          :.................................................:
          :   RF solver                   davidson          :
          :   write xtbopt.log                true          :
          :   linear?                        false          :
          :   energy convergence         0.5000000E-05 Eh   :
          :   grad. convergence          0.1000000E-02 Eh/α :
          :   maxmium RF displ.          1.0000000          :
          :   Hlow (freq-cutoff)         0.1000000E-01      :
          :   Hmax (freq-cutoff)         5.0000000          :
          :   S6 in model hess.         20.0000000          :
          ...................................................

generating ANC from model Hessian ...
Using Lindh-Hessian (1995)
 Shifting diagonal of input Hessian by    9.8625999213193764E-003
 Lowest  eigenvalues of input Hessian
    0.000000    0.000000    0.000000    0.000000    0.000000    0.000000
    0.010000    0.010233    0.010376    0.010712    0.010869    0.011706
    0.012031    0.012571    0.012916    0.014131    0.014624    0.016645
 Highest eigenvalues
    1.929844    1.982779    2.018595    2.047512    2.138564    2.149145


........................................................................
.............................. CYCLE    1 ..............................
........................................................................

 iter      E             dE          RMSdq      gap      omega  full diag
   1    -87.6204240 -0.876204E+02  0.266E-04    2.20       0.0  T
   2    -87.6204240 -0.504187E-09  0.221E-04    2.20      66.1  T
   3    -87.6204240 -0.391580E-09  0.176E-04    2.20      82.9  T
     SCC iter.                  ...        0 min,  0.007 sec
     gradient                   ...        0 min,  0.007 sec
 * total energy  :   -86.7441447 Eh     change       -0.3146752E-08 Eh
   gradient norm :     0.2452102 Eh/α   predicted     0.0000000E+00 (-100.00%)
   displ. norm   :     0.3853764 α      lambda       -0.6242155E-01
   maximum displ.:     0.1035050 α      in ANC's #34, #56, #33, ...

........................................................................
.............................. CYCLE    2 ..............................
........................................................................

 iter      E             dE          RMSdq      gap      omega  full diag
   1    -87.7306895 -0.877307E+02  0.281E-01    2.81       0.0  T
   2    -87.7315187 -0.829159E-03  0.183E-01    2.70       1.0  T
   3    -87.7316507 -0.132079E-03  0.954E-02    2.73       1.0  T
   4    -87.7316972 -0.464480E-04  0.220E-02    2.70       1.0  T
   5    -87.7317032 -0.601978E-05  0.119E-02    2.70       1.2  T
   6    -87.7317051 -0.188213E-05  0.727E-03    2.71       2.0  T
   7    -87.7317056 -0.506419E-06  0.493E-03    2.71       3.0  T
   8    -87.7317059 -0.336774E-06  0.320E-03    2.71       4.6  T
   9    -87.7317061 -0.179409E-06  0.194E-03    2.71       7.5  T
  10    -87.7317062 -0.659235E-07  0.110E-03    2.71      13.2  T
  11    -87.7317062 -0.204970E-07  0.554E-04    2.71      26.3  T
  12    -87.7317062 -0.404063E-08  0.317E-04    2.71      46.0  T
     SCC iter.                  ...        0 min,  0.033 sec
     gradient                   ...        0 min,  0.007 sec
 * total energy  :   -86.7891245 Eh     change       -0.4497986E-01 Eh
   gradient norm :     0.1047023 Eh/α   predicted    -0.3586175E-01 ( -20.27%)
   displ. norm   :     0.4064764 α      lambda       -0.2385391E-01
   maximum displ.:     0.1681958 α      in ANC's #34, #29, #24, ...

........................................................................
.............................. CYCLE    3 ..............................
........................................................................

 iter      E             dE          RMSdq      gap      omega  full diag
   1    -87.7951520 -0.877952E+02  0.245E-01    3.02       0.0  T
   2    -87.7956935 -0.541501E-03  0.144E-01    3.02       1.0  T
   3    -87.7957271 -0.335636E-04  0.721E-02    3.03       1.0  T
   4    -87.7957506 -0.235605E-04  0.226E-02    3.03       1.0  T
   5    -87.7957605 -0.986257E-05  0.965E-03    3.03       1.5  T
   6    -87.7957614 -0.918422E-06  0.639E-03    3.03       2.3  T
   7    -87.7957618 -0.426993E-06  0.443E-03    3.03       3.3  T
   8    -87.7957622 -0.319510E-06  0.269E-03    3.03       5.4  T
   9    -87.7957623 -0.133547E-06  0.155E-03    3.03       9.4  T
  10    -87.7957623 -0.446194E-07  0.881E-04    3.03      16.6  T
  11    -87.7957623 -0.114969E-07  0.367E-04    3.03      39.8  T
     SCC iter.                  ...        0 min,  0.030 sec
     gradient                   ...        0 min,  0.007 sec
 * total energy  :   -86.8028143 Eh     change       -0.1368980E-01 Eh
   gradient norm :     0.0363552 Eh/α   predicted    -0.1389757E-01 (   1.52%)
   displ. norm   :     0.3005777 α      lambda       -0.3894867E-02
   maximum displ.:     0.1116482 α      in ANC's #20, #34, #21, ...

........................................................................
.............................. CYCLE    4 ..............................
........................................................................

 iter      E             dE          RMSdq      gap      omega  full diag
   1    -87.7975102 -0.877975E+02  0.123E-01    3.01       0.0  T
   2    -87.7976646 -0.154304E-03  0.711E-02    3.03       1.0  T
   3    -87.7976723 -0.770652E-05  0.350E-02    3.03       1.0  T
   4    -87.7976744 -0.209127E-05  0.878E-03    3.03       1.7  T
   5    -87.7976760 -0.160273E-05  0.316E-03    3.03       4.6  T
   6    -87.7976761 -0.133600E-06  0.170E-03    3.03       8.6  T
   7    -87.7976761 -0.294901E-07  0.110E-03    3.03      13.3  T
   8    -87.7976761 -0.152143E-07  0.733E-04    3.03      19.9  T
   9    -87.7976761 -0.855069E-08  0.473E-04    3.03      30.8  T
     SCC iter.                  ...        0 min,  0.023 sec
     gradient                   ...        0 min,  0.007 sec
 * total energy  :   -86.8052934 Eh     change       -0.2479076E-02 Eh
   gradient norm :     0.0145080 Eh/α   predicted    -0.2123374E-02 ( -14.35%)
   displ. norm   :     0.2960631 α      lambda       -0.1631978E-02
   maximum displ.:     0.1067469 α      in ANC's #20, #24, #9, ...

........................................................................
.............................. CYCLE    5 ..............................
........................................................................

 iter      E             dE          RMSdq      gap      omega  full diag
   1    -87.7970688 -0.877971E+02  0.101E-01    3.02       0.0  T
   2    -87.7971098 -0.409773E-04  0.586E-02    3.03       1.0  T
   3    -87.7971095  0.292985E-06  0.212E-02    3.03       1.0  T
   4    -87.7971137 -0.418372E-05  0.565E-03    3.03       2.6  T
   5    -87.7971142 -0.567821E-06  0.235E-03    3.03       6.2  T
   6    -87.7971143 -0.454663E-07  0.106E-03    3.03      13.7  T
   7    -87.7971143 -0.156729E-07  0.553E-04    3.03      26.4  T
   8    -87.7971143 -0.230612E-08  0.299E-04    3.03      48.9  T
     SCC iter.                  ...        0 min,  0.022 sec
     gradient                   ...        0 min,  0.008 sec
 * total energy  :   -86.8062603 Eh     change       -0.9668456E-03 Eh
   gradient norm :     0.0113458 Eh/α   predicted    -0.8875366E-03 (  -8.20%)
   displ. norm   :     0.2513521 α      lambda       -0.7620094E-03
   maximum displ.:     0.0928109 α      in ANC's #20, #9, #4, ...

........................................................................
.............................. CYCLE    6 ..............................
........................................................................

 iter      E             dE          RMSdq      gap      omega  full diag
   1    -87.7972658 -0.877973E+02  0.828E-02    3.03       0.0  T
   2    -87.7972735 -0.773132E-05  0.465E-02    3.03       1.0  T
   3    -87.7972729  0.549307E-06  0.994E-03    3.03       1.5  T
   4    -87.7972745 -0.155639E-05  0.409E-03    3.03       3.6  T
   5    -87.7972747 -0.169095E-06  0.178E-03    3.03       8.2  T
   6    -87.7972747 -0.449821E-07  0.710E-04    3.03      20.6  T
   7    -87.7972747 -0.387706E-08  0.463E-04    3.03      31.5  T
     SCC iter.                  ...        0 min,  0.021 sec
     gradient                   ...        0 min,  0.006 sec
 * total energy  :   -86.8067896 Eh     change       -0.5293801E-03 Eh
   gradient norm :     0.0111450 Eh/α   predicted    -0.4051010E-03 ( -23.48%)
   displ. norm   :     0.2994537 α      lambda       -0.6090229E-03
   maximum displ.:     0.1160243 α      in ANC's #4, #9, #5, ...

........................................................................
.............................. CYCLE    7 ..............................
........................................................................

 iter      E             dE          RMSdq      gap      omega  full diag
   1    -87.7990888 -0.877991E+02  0.802E-02    3.03       0.0  T
   2    -87.7990928 -0.407910E-05  0.442E-02    3.03       1.0  T
   3    -87.7990926  0.264403E-06  0.861E-03    3.03       1.7  T
   4    -87.7990939 -0.127400E-05  0.395E-03    3.03       3.7  T
   5    -87.7990940 -0.100965E-06  0.139E-03    3.03      10.5  T
   6    -87.7990940 -0.241075E-07  0.791E-04    3.03      18.4  T
   7    -87.7990940 -0.527946E-08  0.506E-04    3.03      28.8  T
     SCC iter.                  ...        0 min,  0.024 sec
     gradient                   ...        0 min,  0.009 sec
 * total energy  :   -86.8072437 Eh     change       -0.4540478E-03 Eh
   gradient norm :     0.0079175 Eh/α   predicted    -0.3318196E-03 ( -26.92%)
   displ. norm   :     0.3644248 α      lambda       -0.5008182E-03
   maximum displ.:     0.1552701 α      in ANC's #4, #5, #9, ...

........................................................................
.............................. CYCLE    8 ..............................
........................................................................

 iter      E             dE          RMSdq      gap      omega  full diag
   1    -87.8002447 -0.878002E+02  0.838E-02    3.04       0.0  T
   2    -87.8002497 -0.493778E-05  0.462E-02    3.04       1.0  T
   3    -87.8002496  0.371159E-07  0.902E-03    3.04       1.6  T
   4    -87.8002508 -0.121675E-05  0.415E-03    3.04       3.5  T
   5    -87.8002510 -0.103313E-06  0.147E-03    3.04       9.9  T
   6    -87.8002510 -0.201554E-07  0.834E-04    3.04      17.5  T
   7    -87.8002510 -0.503663E-08  0.532E-04    3.04      27.4  T
     SCC iter.                  ...        0 min,  0.018 sec
     gradient                   ...        0 min,  0.007 sec
 * total energy  :   -86.8076140 Eh     change       -0.3702714E-03 Eh
   gradient norm :     0.0062189 Eh/α   predicted    -0.2836656E-03 ( -23.39%)
   displ. norm   :     0.3640599 α      lambda       -0.3689409E-03
   maximum displ.:     0.1618968 α      in ANC's #4, #5, #3, ...

........................................................................
.............................. CYCLE    9 ..............................
........................................................................

 iter      E             dE          RMSdq      gap      omega  full diag
   1    -87.8006734 -0.878007E+02  0.726E-02    3.04       0.0  T
   2    -87.8006774 -0.401820E-05  0.401E-02    3.04       1.0  T
   3    -87.8006776 -0.195704E-06  0.767E-03    3.04       1.9  T
   4    -87.8006783 -0.684476E-06  0.351E-03    3.04       4.2  T
   5    -87.8006783 -0.635424E-07  0.127E-03    3.05      11.5  T
   6    -87.8006783 -0.164809E-07  0.698E-04    3.05      20.9  T
   7    -87.8006783 -0.241897E-08  0.421E-04    3.05      34.6  T
     SCC iter.                  ...        0 min,  0.021 sec
     gradient                   ...        0 min,  0.006 sec
 * total energy  :   -86.8078939 Eh     change       -0.2799485E-03 Eh
   gradient norm :     0.0054754 Eh/α   predicted    -0.2089238E-03 ( -25.37%)
   displ. norm   :     0.3405198 α      lambda       -0.2998965E-03
   maximum displ.:     0.1551891 α      in ANC's #4, #5, #3, ...

........................................................................
.............................. CYCLE   10 ..............................
........................................................................

 iter      E             dE          RMSdq      gap      omega  full diag
   1    -87.8009480 -0.878009E+02  0.642E-02    3.05       0.0  T
   2    -87.8009521 -0.416782E-05  0.358E-02    3.05       1.0  T
   3    -87.8009522 -0.640617E-07  0.744E-03    3.05       2.0  T
   4    -87.8009528 -0.651980E-06  0.311E-03    3.05       4.7  T
   5    -87.8009529 -0.517424E-07  0.138E-03    3.05      10.6  T
   6    -87.8009529 -0.242952E-07  0.651E-04    3.05      22.4  T
   7    -87.8009529 -0.283052E-08  0.427E-04    3.05      34.2  T
     SCC iter.                  ...        0 min,  0.019 sec
     gradient                   ...        0 min,  0.007 sec
 * total energy  :   -86.8081140 Eh     change       -0.2201050E-03 Eh
   gradient norm :     0.0052024 Eh/α   predicted    -0.1673476E-03 ( -23.97%)
   displ. norm   :     0.2784639 α      lambda       -0.2024923E-03
   maximum displ.:     0.1354785 α      in ANC's #5, #4, #3, ...

........................................................................
.............................. CYCLE   11 ..............................
........................................................................

 iter      E             dE          RMSdq      gap      omega  full diag
   1    -87.8009160 -0.878009E+02  0.515E-02    3.05       0.0  T
   2    -87.8009180 -0.200540E-05  0.290E-02    3.06       1.0  T
   3    -87.8009179  0.148974E-06  0.591E-03    3.06       2.5  T
   4    -87.8009184 -0.533774E-06  0.256E-03    3.06       5.7  T
   5    -87.8009185 -0.657046E-07  0.104E-03    3.06      14.0  T
   6    -87.8009185 -0.117966E-07  0.468E-04    3.06      31.1  T
   7    -87.8009185 -0.149706E-08  0.290E-04    3.06      50.4  T
     SCC iter.                  ...        0 min,  0.021 sec
     gradient                   ...        0 min,  0.007 sec
 * total energy  :   -86.8082653 Eh     change       -0.1512376E-03 Eh
   gradient norm :     0.0041908 Eh/α   predicted    -0.1090996E-03 ( -27.86%)
   displ. norm   :     0.2630437 α      lambda       -0.1652963E-03
   maximum displ.:     0.1323878 α      in ANC's #5, #4, #3, ...

........................................................................
.............................. CYCLE   12 ..............................
........................................................................

 iter      E             dE          RMSdq      gap      omega  full diag
   1    -87.8008094 -0.878008E+02  0.505E-02    3.06       0.0  T
   2    -87.8008110 -0.163578E-05  0.287E-02    3.06       1.0  T
   3    -87.8008106  0.475790E-06  0.640E-03    3.06       2.3  T
   4    -87.8008115 -0.918246E-06  0.235E-03    3.06       6.2  T
   5    -87.8008115 -0.432855E-07  0.913E-04    3.06      16.0  T
   6    -87.8008115 -0.839793E-08  0.476E-04    3.06      30.6  T
     SCC iter.                  ...        0 min,  0.017 sec
     gradient                   ...        0 min,  0.006 sec
 * total energy  :   -86.8083933 Eh     change       -0.1280231E-03 Eh
   gradient norm :     0.0038438 Eh/α   predicted    -0.8837064E-04 ( -30.97%)
   displ. norm   :     0.3030110 α      lambda       -0.1778233E-03
   maximum displ.:     0.1494270 α      in ANC's #5, #3, #4, ...

........................................................................
.............................. CYCLE   13 ..............................
........................................................................

 iter      E             dE          RMSdq      gap      omega  full diag
   1    -87.8002967 -0.878003E+02  0.606E-02    3.05       0.0  T
   2    -87.8002990 -0.230829E-05  0.348E-02    3.05       1.0  T
   3    -87.8002980  0.101995E-05  0.820E-03    3.05       1.8  T
   4    -87.8002998 -0.179585E-05  0.259E-03    3.05       5.6  T
   5    -87.8002998 -0.311984E-07  0.122E-03    3.05      11.9  T
   6    -87.8002999 -0.212139E-07  0.650E-04    3.05      22.5  T
   7    -87.8002999 -0.308140E-08  0.414E-04    3.05      35.2  T
     SCC iter.                  ...        0 min,  0.019 sec
     gradient                   ...        0 min,  0.007 sec
 * total energy  :   -86.8085313 Eh     change       -0.1380477E-03 Eh
   gradient norm :     0.0033932 Eh/α   predicted    -0.9708396E-04 ( -29.67%)
   displ. norm   :     0.3501542 α      lambda       -0.1806348E-03
   maximum displ.:     0.1636804 α      in ANC's #5, #3, #1, ...

........................................................................
.............................. CYCLE   14 ..............................
........................................................................

 iter      E             dE          RMSdq      gap      omega  full diag
   1    -87.7993408 -0.877993E+02  0.737E-02    3.04       0.0  T
   2    -87.7993439 -0.313032E-05  0.425E-02    3.04       1.0  T
   3    -87.7993426  0.136243E-05  0.930E-03    3.05       1.6  T
   4    -87.7993450 -0.247626E-05  0.298E-03    3.04       4.9  T
   5    -87.7993451 -0.468478E-07  0.161E-03    3.04       9.0  T
   6    -87.7993451 -0.303470E-07  0.932E-04    3.04      15.7  T
   7    -87.7993451 -0.721674E-08  0.628E-04    3.04      23.2  T
     SCC iter.                  ...        0 min,  0.019 sec
     gradient                   ...        0 min,  0.007 sec
 * total energy  :   -86.8086677 Eh     change       -0.1363957E-03 Eh
   gradient norm :     0.0044085 Eh/α   predicted    -0.1013916E-03 ( -25.66%)
   displ. norm   :     0.3232045 α      lambda       -0.1520957E-03
   maximum displ.:     0.1421847 α      in ANC's #1, #3, #5, ...

........................................................................
.............................. CYCLE   15 ..............................
........................................................................

 iter      E             dE          RMSdq      gap      omega  full diag
   1    -87.7993127 -0.877993E+02  0.697E-02    3.04       0.0  T
   2    -87.7993150 -0.230263E-05  0.404E-02    3.04       1.0  T
   3    -87.7993139  0.113364E-05  0.811E-03    3.04       1.8  T
   4    -87.7993160 -0.210282E-05  0.271E-03    3.04       5.4  T
   5    -87.7993160 -0.397196E-07  0.159E-03    3.04       9.2  T
   6    -87.7993160 -0.280510E-07  0.984E-04    3.04      14.8  T
   7    -87.7993161 -0.959309E-08  0.649E-04    3.04      22.5  T
     SCC iter.                  ...        0 min,  0.018 sec
     gradient                   ...        0 min,  0.008 sec
 * total energy  :   -86.8087793 Eh     change       -0.1115436E-03 Eh
   gradient norm :     0.0045789 Eh/α   predicted    -0.8399332E-04 ( -24.70%)
   displ. norm   :     0.2943751 α      lambda       -0.1252235E-03
   maximum displ.:     0.1442516 α      in ANC's #1, #3, #5, ...

........................................................................
.............................. CYCLE   16 ..............................
........................................................................

 iter      E             dE          RMSdq      gap      omega  full diag
   1    -87.7984380 -0.877984E+02  0.629E-02    3.03       0.0  T
   2    -87.7984402 -0.226838E-05  0.363E-02    3.03       1.0  T
   3    -87.7984395  0.712398E-06  0.721E-03    3.03       2.0  T
   4    -87.7984410 -0.152737E-05  0.274E-03    3.03       5.3  T
   5    -87.7984411 -0.531904E-07  0.172E-03    3.03       8.5  T
   6    -87.7984411 -0.315088E-07  0.109E-03    3.03      13.4  T
   7    -87.7984411 -0.129304E-07  0.704E-04    3.03      20.7  T
   8    -87.7984411 -0.759208E-08  0.396E-04    3.03      36.8  T
     SCC iter.                  ...        0 min,  0.021 sec
     gradient                   ...        0 min,  0.008 sec
 * total energy  :   -86.8088645 Eh     change       -0.8521782E-04 Eh
   gradient norm :     0.0055743 Eh/α   predicted    -0.6805335E-04 ( -20.14%)
   displ. norm   :     0.2625855 α      lambda       -0.1436531E-03
   maximum displ.:     0.1490852 α      in ANC's #1, #11, #3, ...

........................................................................
.............................. CYCLE   17 ..............................
........................................................................

 iter      E             dE          RMSdq      gap      omega  full diag
   1    -87.8022296 -0.878022E+02  0.626E-02    3.03       0.0  T
   2    -87.8022328 -0.315208E-05  0.365E-02    3.03       1.0  T
   3    -87.8022318  0.100751E-05  0.797E-03    3.03       1.8  T
   4    -87.8022337 -0.195404E-05  0.259E-03    3.03       5.6  T
   5    -87.8022338 -0.492849E-07  0.174E-03    3.03       8.4  T
   6    -87.8022338 -0.381232E-07  0.999E-04    3.03      14.6  T
   7    -87.8022338 -0.105778E-07  0.659E-04    3.03      22.1  T
     SCC iter.                  ...        0 min,  0.018 sec
     gradient                   ...        0 min,  0.007 sec
 * total energy  :   -86.8089331 Eh     change       -0.6859466E-04 Eh
   gradient norm :     0.0051764 Eh/α   predicted    -0.7678318E-04 (  11.94%)
   displ. norm   :     0.2075235 α      lambda       -0.9379200E-04
   maximum displ.:     0.1153735 α      in ANC's #1, #3, #5, ...

........................................................................
.............................. CYCLE   18 ..............................
........................................................................

 iter      E             dE          RMSdq      gap      omega  full diag
   1    -87.8005284 -0.878005E+02  0.446E-02    3.02       0.0  T
   2    -87.8005296 -0.117718E-05  0.256E-02    3.02       1.0  T
   3    -87.8005296  0.296263E-07  0.443E-03    3.02       3.3  T
   4    -87.8005300 -0.419601E-06  0.204E-03    3.02       7.1  T
   5    -87.8005300 -0.329595E-07  0.123E-03    3.02      11.8  T
   6    -87.8005300 -0.160941E-07  0.785E-04    3.02      18.6  T
   7    -87.8005300 -0.669421E-08  0.502E-04    3.02      29.1  T
     SCC iter.                  ...        0 min,  0.020 sec
     gradient                   ...        0 min,  0.007 sec
 * total energy  :   -86.8090011 Eh     change       -0.6804124E-04 Eh
   gradient norm :     0.0052690 Eh/α   predicted    -0.4892515E-04 ( -28.09%)
   displ. norm   :     0.2653677 α      lambda       -0.1470043E-03
   maximum displ.:     0.1709934 α      in ANC's #1, #3, #18, ...

........................................................................
.............................. CYCLE   19 ..............................
........................................................................

 iter      E             dE          RMSdq      gap      omega  full diag
   1    -87.7997523 -0.877998E+02  0.601E-02    3.02       0.0  T
   2    -87.7997547 -0.247244E-05  0.344E-02    3.02       1.0  T
   3    -87.7997543  0.421515E-06  0.715E-03    3.02       2.0  T
   4    -87.7997554 -0.113338E-05  0.277E-03    3.02       5.3  T
   5    -87.7997555 -0.513146E-07  0.160E-03    3.02       9.1  T
   6    -87.7997555 -0.290743E-07  0.994E-04    3.02      14.7  T
   7    -87.7997555 -0.999614E-08  0.611E-04    3.02      23.9  T
     SCC iter.                  ...        0 min,  0.018 sec
     gradient                   ...        0 min,  0.007 sec
 * total energy  :   -86.8090989 Eh     change       -0.9778459E-04 Eh
   gradient norm :     0.0053170 Eh/α   predicted    -0.7868132E-04 ( -19.54%)
   displ. norm   :     0.3016704 α      lambda       -0.1501640E-03
   maximum displ.:     0.2023352 α      in ANC's #1, #3, #17, ...

........................................................................
.............................. CYCLE   20 ..............................
........................................................................

 iter      E             dE          RMSdq      gap      omega  full diag
   1    -87.7989527 -0.877990E+02  0.756E-02    3.01       0.0  T
   2    -87.7989554 -0.267563E-05  0.436E-02    3.01       1.0  T
   3    -87.7989549  0.507868E-06  0.772E-03    3.01       1.9  T
   4    -87.7989563 -0.140876E-05  0.323E-03    3.01       4.5  T
   5    -87.7989564 -0.870177E-07  0.169E-03    3.01       8.6  T
   6    -87.7989564 -0.271567E-07  0.105E-03    3.01      13.8  T
   7    -87.7989564 -0.102661E-07  0.634E-04    3.01      23.0  T
   8    -87.7989564 -0.582358E-08  0.398E-04    3.01      36.7  T
     SCC iter.                  ...        0 min,  0.018 sec
     gradient                   ...        0 min,  0.007 sec
 * total energy  :   -86.8092071 Eh     change       -0.1081744E-03 Eh
   gradient norm :     0.0077086 Eh/α   predicted    -0.8191597E-04 ( -24.27%)
   displ. norm   :     0.3091394 α      lambda       -0.2468121E-03
   maximum displ.:     0.2030199 α      in ANC's #1, #15, #10, ...
 * RMSD in coord.:     0.6344366 α      energy gain  -0.6506240E-01 Eh

generating ANC from model Hessian ...
Using Lindh-Hessian (1995)
 Shifting diagonal of input Hessian by    9.8519515945022264E-003
 Lowest  eigenvalues of input Hessian
    0.000000    0.000000    0.000000    0.000000    0.000000    0.000000
    0.010000    0.010221    0.010370    0.010709    0.010947    0.011664
    0.012279    0.013054    0.013403    0.014889    0.014984    0.017643
 Highest eigenvalues
    2.015445    2.064076    2.107025    2.365669    2.388819    2.459911


........................................................................
.............................. CYCLE   21 ..............................
........................................................................

 iter      E             dE          RMSdq      gap      omega  full diag
   1    -87.8012858 -0.878013E+02  0.900E-02    3.03       0.0  T
   2    -87.8012935 -0.769849E-05  0.515E-02    3.03       1.0  T
   3    -87.8012931  0.382574E-06  0.980E-03    3.03       1.5  T
   4    -87.8012944 -0.132040E-05  0.362E-03    3.03       4.0  T
   5    -87.8012946 -0.156254E-06  0.175E-03    3.03       8.3  T
   6    -87.8012946 -0.369217E-07  0.766E-04    3.03      19.1  T
   7    -87.8012946 -0.437386E-08  0.451E-04    3.03      32.3  T
     SCC iter.                  ...        0 min,  0.020 sec
     gradient                   ...        0 min,  0.006 sec
 * total energy  :   -86.8093537 Eh     change       -0.1466629E-03 Eh
   gradient norm :     0.0078813 Eh/α   predicted     0.0000000E+00 (-100.00%)
   displ. norm   :     0.0606121 α      lambda       -0.1030587E-03
   maximum displ.:     0.0230195 α      in ANC's #1, #17, #15, ...

........................................................................
.............................. CYCLE   22 ..............................
........................................................................

 iter      E             dE          RMSdq      gap      omega  full diag
   1    -87.8012477 -0.878012E+02  0.238E-02    3.02       0.0  T
   2    -87.8012489 -0.121917E-05  0.139E-02    3.02       1.0  T
   3    -87.8012488  0.108378E-06  0.397E-03    3.02       3.7  T
   4    -87.8012491 -0.248396E-06  0.101E-03    3.02      14.5  T
   5    -87.8012491 -0.140863E-07  0.525E-04    3.02      27.8  T
   6    -87.8012491 -0.168676E-08  0.256E-04    3.02      57.0  T
     SCC iter.                  ...        0 min,  0.016 sec
     gradient                   ...        0 min,  0.007 sec
 * total energy  :   -86.8094587 Eh     change       -0.1049998E-03 Eh
   gradient norm :     0.0032391 Eh/α   predicted    -0.6719371E-04 ( -36.01%)
   displ. norm   :     0.1355251 α      lambda       -0.1545360E-03
   maximum displ.:     0.0582746 α      in ANC's #1, #17, #4, ...

........................................................................
.............................. CYCLE   23 ..............................
........................................................................

 iter      E             dE          RMSdq      gap      omega  full diag
   1    -87.8008155 -0.878008E+02  0.481E-02    3.00       0.0  T
   2    -87.8008176 -0.204688E-05  0.281E-02    3.00       1.0  T
   3    -87.8008170  0.555007E-06  0.611E-03    3.00       2.4  T
   4    -87.8008180 -0.947166E-06  0.188E-03    3.00       7.7  T
   5    -87.8008180 -0.369860E-07  0.105E-03    3.00      13.9  T
   6    -87.8008180 -0.860275E-08  0.506E-04    3.00      28.8  T
   7    -87.8008180 -0.295043E-08  0.305E-04    3.00      47.7  T
     SCC iter.                  ...        0 min,  0.016 sec
     gradient                   ...        0 min,  0.008 sec
 * total energy  :   -86.8095577 Eh     change       -0.9898070E-04 Eh
   gradient norm :     0.0033563 Eh/α   predicted    -0.7868774E-04 ( -20.50%)
   displ. norm   :     0.1124294 α      lambda       -0.6427886E-04
   maximum displ.:     0.0547291 α      in ANC's #1, #17, #4, ...

........................................................................
.............................. CYCLE   24 ..............................
........................................................................

 iter      E             dE          RMSdq      gap      omega  full diag
   1    -87.8005787 -0.878006E+02  0.353E-02    3.00       0.0  T
   2    -87.8005792 -0.448526E-06  0.206E-02    3.00       1.0  T
   3    -87.8005790  0.221329E-06  0.363E-03    3.00       4.0  T
   4    -87.8005794 -0.399613E-06  0.137E-03    3.00      10.7  T
   5    -87.8005794 -0.904484E-08  0.709E-04    3.00      20.6  T
   6    -87.8005794 -0.594031E-08  0.390E-04    3.00      37.4  T
     SCC iter.                  ...        0 min,  0.016 sec
     gradient                   ...        0 min,  0.007 sec
 * total energy  :   -86.8096111 Eh     change       -0.5333854E-04 Eh
   gradient norm :     0.0044696 Eh/α   predicted    -0.3254597E-04 ( -38.98%)
   displ. norm   :     0.2751781 α      lambda       -0.1491922E-03
   maximum displ.:     0.1355764 α      in ANC's #1, #17, #4, ...

........................................................................
.............................. CYCLE   25 ..............................
........................................................................

 iter      E             dE          RMSdq      gap      omega  full diag
   1    -87.7995731 -0.877996E+02  0.824E-02    2.99       0.0  T
   2    -87.7995754 -0.233465E-05  0.479E-02    2.99       1.0  T
   3    -87.7995746  0.820406E-06  0.795E-03    2.99       1.8  T
   4    -87.7995764 -0.174404E-05  0.331E-03    2.99       4.4  T
   5    -87.7995764 -0.649412E-07  0.173E-03    2.99       8.5  T
   6    -87.7995765 -0.307367E-07  0.956E-04    2.99      15.3  T
   7    -87.7995765 -0.747768E-08  0.608E-04    2.99      24.0  T
     SCC iter.                  ...        0 min,  0.017 sec
     gradient                   ...        0 min,  0.007 sec
 * total energy  :   -86.8097274 Eh     change       -0.1163341E-03 Eh
   gradient norm :     0.0059995 Eh/α   predicted    -0.8024736E-04 ( -31.02%)
   displ. norm   :     0.3533441 α      lambda       -0.1777679E-03
   maximum displ.:     0.1800919 α      in ANC's #1, #17, #4, ...

........................................................................
.............................. CYCLE   26 ..............................
........................................................................

 iter      E             dE          RMSdq      gap      omega  full diag
   1    -87.7979697 -0.877980E+02  0.101E-01    2.98       0.0  T
   2    -87.7979739 -0.412598E-05  0.586E-02    2.98       1.0  T
   3    -87.7979729  0.914394E-06  0.951E-03    2.98       1.5  T
   4    -87.7979752 -0.227980E-05  0.416E-03    2.98       3.5  T
   5    -87.7979754 -0.144534E-06  0.230E-03    2.98       6.3  T
   6    -87.7979754 -0.495595E-07  0.131E-03    2.98      11.1  T
   7    -87.7979754 -0.142514E-07  0.833E-04    2.98      17.5  T
   8    -87.7979754 -0.957422E-08  0.481E-04    2.98      30.4  T
     SCC iter.                  ...        0 min,  0.023 sec
     gradient                   ...        0 min,  0.007 sec
 * total energy  :   -86.8098536 Eh     change       -0.1262296E-03 Eh
   gradient norm :     0.0087005 Eh/α   predicted    -0.9999332E-04 ( -20.78%)
   displ. norm   :     0.2750783 α      lambda       -0.1963028E-03
   maximum displ.:     0.1505096 α      in ANC's #1, #17, #4, ...

........................................................................
.............................. CYCLE   27 ..............................
........................................................................

 iter      E             dE          RMSdq      gap      omega  full diag
   1    -87.7986446 -0.877986E+02  0.747E-02    2.98       0.0  T
   2    -87.7986484 -0.386235E-05  0.431E-02    2.98       1.0  T
   3    -87.7986479  0.492908E-06  0.777E-03    2.98       1.9  T
   4    -87.7986491 -0.120451E-05  0.324E-03    2.98       4.5  T
   5    -87.7986493 -0.137189E-06  0.180E-03    2.98       8.1  T
   6    -87.7986493 -0.296193E-07  0.104E-03    2.98      14.0  T
   7    -87.7986493 -0.891278E-08  0.708E-04    2.98      20.6  T
   8    -87.7986493 -0.706491E-08  0.373E-04    2.98      39.2  T
     SCC iter.                  ...        0 min,  0.020 sec
     gradient                   ...        0 min,  0.007 sec
 * total energy  :   -86.8100149 Eh     change       -0.1613088E-03 Eh
   gradient norm :     0.0073884 Eh/α   predicted    -0.1055790E-03 ( -34.55%)
   displ. norm   :     0.3683326 α      lambda       -0.3370502E-03
   maximum displ.:     0.2096509 α      in ANC's #1, #4, #17, ...

........................................................................
.............................. CYCLE   28 ..............................
........................................................................

 iter      E             dE          RMSdq      gap      omega  full diag
   1    -87.8011413 -0.878011E+02  0.982E-02    2.99       0.0  T
   2    -87.8011474 -0.606313E-05  0.562E-02    2.99       1.0  T
   3    -87.8011464  0.100227E-05  0.106E-02    2.99       1.4  T
   4    -87.8011487 -0.227367E-05  0.428E-03    2.99       3.4  T
   5    -87.8011489 -0.212292E-06  0.225E-03    2.99       6.5  T
   6    -87.8011489 -0.501526E-07  0.141E-03    2.99      10.4  T
   7    -87.8011489 -0.161303E-07  0.981E-04    2.99      14.9  T
   8    -87.8011490 -0.145689E-07  0.479E-04    2.99      30.4  T
     SCC iter.                  ...        0 min,  0.020 sec
     gradient                   ...        0 min,  0.006 sec
 * total energy  :   -86.8102573 Eh     change       -0.2423656E-03 Eh
   gradient norm :     0.0057782 Eh/α   predicted    -0.1913921E-03 ( -21.03%)
   displ. norm   :     0.5555368 α      lambda       -0.2685392E-03
   maximum displ.:     0.3100143 α      in ANC's #1, #17, #4, ...

........................................................................
.............................. CYCLE   29 ..............................
........................................................................

 iter      E             dE          RMSdq      gap      omega  full diag
   1    -87.7956634 -0.877957E+02  0.150E-01    2.96       0.0  T
   2    -87.7956734 -0.100543E-04  0.864E-02    2.96       1.0  T
   3    -87.7956706  0.284870E-05  0.157E-02    2.97       1.0  T
   4    -87.7956768 -0.623606E-05  0.658E-03    2.97       2.2  T
   5    -87.7956771 -0.317686E-06  0.354E-03    2.97       4.1  T
   6    -87.7956773 -0.132202E-06  0.236E-03    2.97       6.2  T
   7    -87.7956773 -0.541641E-07  0.138E-03    2.97      10.6  T
   8    -87.7956774 -0.292979E-07  0.757E-04    2.97      19.3  T
   9    -87.7956774 -0.676657E-08  0.426E-04    2.97      34.2  T
     SCC iter.                  ...        0 min,  0.022 sec
     gradient                   ...        0 min,  0.007 sec
 * total energy  :   -86.8103821 Eh     change       -0.1247488E-03 Eh
   gradient norm :     0.0123081 Eh/α   predicted    -0.1757257E-03 (  40.86%)
   displ. norm   :     0.2029582 α      lambda       -0.3247497E-03
   maximum displ.:     0.1244929 α      in ANC's #1, #4, #18, ...

........................................................................
.............................. CYCLE   30 ..............................
........................................................................

 iter      E             dE          RMSdq      gap      omega  full diag
   1    -87.7998997 -0.877999E+02  0.518E-02    3.00       0.0  T
   2    -87.7999045 -0.478898E-05  0.295E-02    2.99       1.0  T
   3    -87.7999039  0.603508E-06  0.832E-03    2.99       1.8  T
   4    -87.7999053 -0.137187E-05  0.268E-03    2.99       5.4  T
   5    -87.7999054 -0.720007E-07  0.134E-03    2.99      10.9  T
   6    -87.7999054 -0.328535E-07  0.715E-04    2.99      20.4  T
   7    -87.7999054 -0.391955E-08  0.453E-04    2.99      32.2  T
     SCC iter.                  ...        0 min,  0.020 sec
     gradient                   ...        0 min,  0.007 sec
 * total energy  :   -86.8105816 Eh     change       -0.1995673E-03 Eh
   gradient norm :     0.0065016 Eh/α   predicted    -0.1690633E-03 ( -15.29%)
   displ. norm   :     0.3833961 α      lambda       -0.1896274E-03
   maximum displ.:     0.2321563 α      in ANC's #1, #4, #17, ...

........................................................................
.............................. CYCLE   31 ..............................
........................................................................

 iter      E             dE          RMSdq      gap      omega  full diag
   1    -87.7989112 -0.877989E+02  0.963E-02    2.99       0.0  T
   2    -87.7989152 -0.401866E-05  0.551E-02    2.99       1.0  T
   3    -87.7989141  0.108245E-05  0.974E-03    3.00       1.5  T
   4    -87.7989164 -0.226360E-05  0.431E-03    3.00       3.4  T
   5    -87.7989166 -0.209970E-06  0.216E-03    3.00       6.7  T
   6    -87.7989166 -0.432337E-07  0.151E-03    3.00       9.6  T
   7    -87.7989166 -0.207150E-07  0.980E-04    3.00      14.9  T
   8    -87.7989166 -0.172183E-07  0.428E-04    3.00      34.1  T
     SCC iter.                  ...        0 min,  0.019 sec
     gradient                   ...        0 min,  0.007 sec
 * total energy  :   -86.8107421 Eh     change       -0.1605269E-03 Eh
   gradient norm :     0.0052618 Eh/α   predicted    -0.1088328E-03 ( -32.20%)
   displ. norm   :     0.5083065 α      lambda       -0.3021965E-03
   maximum displ.:     0.3138525 α      in ANC's #1, #4, #17, ...

........................................................................
.............................. CYCLE   32 ..............................
........................................................................

 iter      E             dE          RMSdq      gap      omega  full diag
   1    -87.7992922 -0.877993E+02  0.129E-01    3.00       0.0  T
   2    -87.7993041 -0.119626E-04  0.734E-02    3.00       1.0  T
   3    -87.7993013  0.284016E-05  0.151E-02    3.01       1.0  T
   4    -87.7993065 -0.517072E-05  0.598E-03    3.01       2.4  T
   5    -87.7993069 -0.447231E-06  0.316E-03    3.01       4.6  T
   6    -87.7993070 -0.951642E-07  0.206E-03    3.01       7.1  T
   7    -87.7993071 -0.382526E-07  0.141E-03    3.01      10.3  T
   8    -87.7993071 -0.345753E-07  0.549E-04    3.01      26.6  T
   9    -87.7993071 -0.404421E-08  0.302E-04    3.01      48.2  T
     SCC iter.                  ...        0 min,  0.025 sec
     gradient                   ...        0 min,  0.006 sec
 * total energy  :   -86.8109640 Eh     change       -0.2218551E-03 Eh
   gradient norm :     0.0074743 Eh/α   predicted    -0.1901405E-03 ( -14.30%)
   displ. norm   :     0.4578188 α      lambda       -0.2039031E-03
   maximum displ.:     0.2877289 α      in ANC's #1, #18, #2, ...

........................................................................
.............................. CYCLE   33 ..............................
........................................................................

 iter      E             dE          RMSdq      gap      omega  full diag
   1    -87.7986328 -0.877986E+02  0.114E-01    3.01       0.0  T
   2    -87.7986378 -0.498547E-05  0.652E-02    3.01       1.0  T
   3    -87.7986358  0.201074E-05  0.115E-02    3.01       1.3  T
   4    -87.7986394 -0.362269E-05  0.507E-03    3.01       2.9  T
   5    -87.7986397 -0.287918E-06  0.242E-03    3.01       6.0  T
   6    -87.7986397 -0.552700E-07  0.174E-03    3.01       8.4  T
   7    -87.7986397 -0.284925E-07  0.114E-03    3.01      12.8  T
   8    -87.7986398 -0.226499E-07  0.451E-04    3.01      32.3  T
   9    -87.7986398 -0.196006E-08  0.254E-04    3.01      57.5  T
     SCC iter.                  ...        0 min,  0.021 sec
     gradient                   ...        0 min,  0.008 sec
 * total energy  :   -86.8111195 Eh     change       -0.1554570E-03 Eh
   gradient norm :     0.0086635 Eh/α   predicted    -0.1233259E-03 ( -20.67%)
   displ. norm   :     0.4012709 α      lambda       -0.2991562E-03
   maximum displ.:     0.2496598 α      in ANC's #1, #6, #7, ...

........................................................................
.............................. CYCLE   34 ..............................
........................................................................

 iter      E             dE          RMSdq      gap      omega  full diag
   1    -87.8070386 -0.878070E+02  0.966E-02    3.04       0.0  T
   2    -87.8070450 -0.639705E-05  0.552E-02    3.04       1.0  T
   3    -87.8070405  0.451634E-05  0.147E-02    3.03       1.0  T
   4    -87.8070471 -0.665101E-05  0.492E-03    3.03       3.0  T
   5    -87.8070473 -0.184842E-06  0.262E-03    3.03       5.6  T
   6    -87.8070474 -0.787859E-07  0.176E-03    3.03       8.3  T
   7    -87.8070474 -0.315815E-07  0.123E-03    3.03      11.8  T
   8    -87.8070474 -0.288119E-07  0.579E-04    3.03      25.2  T
   9    -87.8070474 -0.545759E-08  0.352E-04    3.03      41.4  T
     SCC iter.                  ...        0 min,  0.026 sec
     gradient                   ...        0 min,  0.007 sec
 * total energy  :   -86.8112097 Eh     change       -0.9021877E-04 Eh
   gradient norm :     0.0105050 Eh/α   predicted    -0.1736644E-03 (  92.49%)
   displ. norm   :     0.5238085 α      lambda       -0.3525619E-03
   maximum displ.:     0.3318813 α      in ANC's #1, #17, #18, ...

........................................................................
.............................. CYCLE   35 ..............................
........................................................................

 iter      E             dE          RMSdq      gap      omega  full diag
   1    -87.7989397 -0.877989E+02  0.133E-01    3.01       0.0  T
   2    -87.7989493 -0.955615E-05  0.761E-02    3.01       1.0  T
   3    -87.7989454  0.393567E-05  0.157E-02    3.02       1.0  T
   4    -87.7989523 -0.694487E-05  0.647E-03    3.02       2.3  T
   5    -87.7989526 -0.350806E-06  0.360E-03    3.02       4.1  T
   6    -87.7989528 -0.161456E-06  0.248E-03    3.02       5.9  T
   7    -87.7989529 -0.603875E-07  0.156E-03    3.02       9.4  T
   8    -87.7989529 -0.402048E-07  0.671E-04    3.02      21.8  T
   9    -87.7989529 -0.537109E-08  0.345E-04    3.02      42.3  T
     SCC iter.                  ...        0 min,  0.023 sec
     gradient                   ...        0 min,  0.007 sec
 * total energy  :   -86.8114088 Eh     change       -0.1991680E-03 Eh
   gradient norm :     0.0093179 Eh/α   predicted    -0.2246598E-03 (  12.80%)
   displ. norm   :     0.1084874 α      lambda       -0.1465969E-03
   maximum displ.:     0.0695198 α      in ANC's #1, #2, #6, ...

........................................................................
.............................. CYCLE   36 ..............................
........................................................................

 iter      E             dE          RMSdq      gap      omega  full diag
   1    -87.7996092 -0.877996E+02  0.298E-02    3.03       0.0  T
   2    -87.7996149 -0.564294E-05  0.172E-02    3.03       1.0  T
   3    -87.7996150 -0.116873E-06  0.800E-03    3.03       1.8  T
   4    -87.7996154 -0.386656E-06  0.245E-03    3.03       6.0  T
   5    -87.7996155 -0.136926E-06  0.110E-03    3.03      13.2  T
   6    -87.7996155 -0.114043E-07  0.778E-04    3.03      18.7  T
   7    -87.7996155 -0.682441E-08  0.563E-04    3.03      25.9  T
     SCC iter.                  ...        0 min,  0.021 sec
     gradient                   ...        0 min,  0.008 sec
 * total energy  :   -86.8115060 Eh     change       -0.9715633E-04 Eh
   gradient norm :     0.0055657 Eh/α   predicted    -0.7416230E-04 ( -23.67%)
   displ. norm   :     0.3449049 α      lambda       -0.2153540E-03
   maximum displ.:     0.2266926 α      in ANC's #1, #6, #2, ...

........................................................................
.............................. CYCLE   37 ..............................
........................................................................

 iter      E             dE          RMSdq      gap      omega  full diag
   1    -87.8012158 -0.878012E+02  0.824E-02    3.04       0.0  T
   2    -87.8012239 -0.804889E-05  0.474E-02    3.04       1.0  T
   3    -87.8012209  0.294381E-05  0.136E-02    3.04       1.1  T
   4    -87.8012252 -0.431914E-05  0.464E-03    3.04       3.1  T
   5    -87.8012256 -0.373878E-06  0.260E-03    3.04       5.6  T
   6    -87.8012257 -0.574941E-07  0.180E-03    3.04       8.1  T
   7    -87.8012257 -0.329560E-07  0.131E-03    3.04      11.1  T
   8    -87.8012257 -0.337452E-07  0.520E-04    3.04      28.1  T
   9    -87.8012257 -0.442063E-08  0.303E-04    3.04      48.2  T
     SCC iter.                  ...        0 min,  0.023 sec
     gradient                   ...        0 min,  0.006 sec
 * total energy  :   -86.8116345 Eh     change       -0.1285280E-03 Eh
   gradient norm :     0.0053690 Eh/α   predicted    -0.1204870E-03 (  -6.26%)
   displ. norm   :     0.4973475 α      lambda       -0.1308946E-03
   maximum displ.:     0.3275060 α      in ANC's #1, #2, #6, ...

........................................................................
.............................. CYCLE   38 ..............................
........................................................................

 iter      E             dE          RMSdq      gap      omega  full diag
   1    -87.7974000 -0.877974E+02  0.117E-01    3.05       0.0  T
   2    -87.7974040 -0.394391E-05  0.667E-02    3.05       1.0  T
   3    -87.7974021  0.184382E-05  0.116E-02    3.05       1.3  T
   4    -87.7974054 -0.321798E-05  0.528E-03    3.05       2.8  T
   5    -87.7974057 -0.321465E-06  0.259E-03    3.05       5.6  T
   6    -87.7974057 -0.576176E-07  0.194E-03    3.05       7.5  T
   7    -87.7974058 -0.385113E-07  0.126E-03    3.05      11.6  T
   8    -87.7974058 -0.292635E-07  0.443E-04    3.05      32.9  T
   9    -87.7974058 -0.192161E-08  0.255E-04    3.05      57.1  T
     SCC iter.                  ...        0 min,  0.026 sec
     gradient                   ...        0 min,  0.007 sec
 * total energy  :   -86.8117012 Eh     change       -0.6669203E-04 Eh
   gradient norm :     0.0063148 Eh/α   predicted    -0.8164101E-04 (  22.41%)
   displ. norm   :     0.1846410 α      lambda       -0.1575628E-03
   maximum displ.:     0.1143209 α      in ANC's #1, #2, #7, ...

........................................................................
.............................. CYCLE   39 ..............................
........................................................................

 iter      E             dE          RMSdq      gap      omega  full diag
   1    -87.8032209 -0.878032E+02  0.466E-02    3.07       0.0  T
   2    -87.8032237 -0.283569E-05  0.270E-02    3.06       1.0  T
   3    -87.8032226  0.116259E-05  0.804E-03    3.06       1.8  T
   4    -87.8032242 -0.167245E-05  0.228E-03    3.06       6.4  T
   5    -87.8032243 -0.930372E-07  0.122E-03    3.06      12.0  T
   6    -87.8032243 -0.133943E-07  0.860E-04    3.06      17.0  T
   7    -87.8032243 -0.822631E-08  0.622E-04    3.06      23.4  T
     SCC iter.                  ...        0 min,  0.018 sec
     gradient                   ...        0 min,  0.007 sec
 * total energy  :   -86.8117597 Eh     change       -0.5849934E-04 Eh
   gradient norm :     0.0056715 Eh/α   predicted    -0.8146904E-04 (  39.26%)
   displ. norm   :     0.2260641 α      lambda       -0.8029304E-04
   maximum displ.:     0.1510925 α      in ANC's #1, #2, #6, ...

........................................................................
.............................. CYCLE   40 ..............................
........................................................................

 iter      E             dE          RMSdq      gap      omega  full diag
   1    -87.8014906 -0.878015E+02  0.546E-02    3.06       0.0  T
   2    -87.8014930 -0.236496E-05  0.314E-02    3.06       1.0  T
   3    -87.8014921  0.854531E-06  0.722E-03    3.06       2.0  T
   4    -87.8014934 -0.128224E-05  0.271E-03    3.06       5.4  T
   5    -87.8014935 -0.108110E-06  0.155E-03    3.06       9.4  T
   6    -87.8014935 -0.216396E-07  0.107E-03    3.06      13.7  T
   7    -87.8014936 -0.114762E-07  0.754E-04    3.06      19.3  T
   8    -87.8014936 -0.999343E-08  0.285E-04    3.06      51.2  T
     SCC iter.                  ...        0 min,  0.019 sec
     gradient                   ...        0 min,  0.007 sec
 * total energy  :   -86.8118101 Eh     change       -0.5040633E-04 Eh
   gradient norm :     0.0024526 Eh/α   predicted    -0.4220275E-04 ( -16.27%)
   displ. norm   :     0.2145120 α      lambda       -0.4919708E-04
   maximum displ.:     0.1445875 α      in ANC's #1, #2, #3, ...

........................................................................
.............................. CYCLE   41 ..............................
........................................................................

 iter      E             dE          RMSdq      gap      omega  full diag
   1    -87.8001943 -0.878002E+02  0.507E-02    3.06       0.0  T
   2    -87.8001949 -0.615043E-06  0.294E-02    3.06       1.0  T
   3    -87.8001947  0.211451E-06  0.405E-03    3.06       3.6  T
   4    -87.8001951 -0.401506E-06  0.181E-03    3.06       8.1  T
   5    -87.8001951 -0.387283E-07  0.933E-04    3.06      15.6  T
   6    -87.8001951 -0.899340E-08  0.680E-04    3.06      21.5  T
     SCC iter.                  ...        0 min,  0.017 sec
     gradient                   ...        0 min,  0.008 sec
 * total energy  :   -86.8118419 Eh     change       -0.3175918E-04 Eh
   gradient norm :     0.0031820 Eh/α   predicted    -0.2573227E-04 ( -18.98%)
   displ. norm   :     0.2025527 α      lambda       -0.5572355E-04
   maximum displ.:     0.1310020 α      in ANC's #1, #3, #2, ...

........................................................................
.............................. CYCLE   42 ..............................
........................................................................

 iter      E             dE          RMSdq      gap      omega  full diag
   1    -87.8005373 -0.878005E+02  0.471E-02    3.06       0.0  T
   2    -87.8005380 -0.636518E-06  0.273E-02    3.06       1.0  T
   3    -87.8005377  0.275518E-06  0.450E-03    3.07       3.2  T
   4    -87.8005382 -0.478075E-06  0.183E-03    3.07       8.0  T
   5    -87.8005382 -0.352643E-07  0.103E-03    3.07      14.2  T
   6    -87.8005382 -0.969109E-08  0.743E-04    3.07      19.6  T
   7    -87.8005382 -0.622363E-08  0.435E-04    3.07      33.5  T
     SCC iter.                  ...        0 min,  0.018 sec
     gradient                   ...        0 min,  0.008 sec
 * total energy  :   -86.8118822 Eh     change       -0.4034359E-04 Eh
   gradient norm :     0.0036590 Eh/α   predicted    -0.2900890E-04 ( -28.10%)
   displ. norm   :     0.2665304 α      lambda       -0.7605097E-04
   maximum displ.:     0.1590584 α      in ANC's #1, #3, #2, ...
 * RMSD in coord.:     0.8922728 α      energy gain  -0.2675147E-02 Eh

generating ANC from model Hessian ...
Using Lindh-Hessian (1995)
 Shifting diagonal of input Hessian by    9.8596074218468711E-003
 Lowest  eigenvalues of input Hessian
    0.000000    0.000000    0.000000    0.000000    0.000000    0.000000
    0.010000    0.010240    0.010270    0.010721    0.010974    0.011749
    0.012346    0.012983    0.013405    0.014524    0.015278    0.017638
 Highest eigenvalues
    2.017694    2.068305    2.109661    2.364951    2.391360    2.446528


........................................................................
.............................. CYCLE   43 ..............................
........................................................................

 iter      E             dE          RMSdq      gap      omega  full diag
   1    -87.8023683 -0.878024E+02  0.607E-02    3.07       0.0  T
   2    -87.8023696 -0.125084E-05  0.352E-02    3.07       1.0  T
   3    -87.8023693  0.270060E-06  0.485E-03    3.07       3.0  T
   4    -87.8023698 -0.519000E-06  0.181E-03    3.07       8.1  T
   5    -87.8023699 -0.432124E-07  0.899E-04    3.07      16.2  T
   6    -87.8023699 -0.879305E-08  0.555E-04    3.07      26.3  T
     SCC iter.                  ...        0 min,  0.015 sec
     gradient                   ...        0 min,  0.007 sec
 * total energy  :   -86.8119307 Eh     change       -0.4844271E-04 Eh
   gradient norm :     0.0044707 Eh/α   predicted     0.0000000E+00 (-100.00%)
   displ. norm   :     0.0424405 α      lambda       -0.5679737E-04
   maximum displ.:     0.0237671 α      in ANC's #3, #15, #17, ...

........................................................................
.............................. CYCLE   44 ..............................
........................................................................

 iter      E             dE          RMSdq      gap      omega  full diag
   1    -87.8021595 -0.878022E+02  0.158E-02    3.07       0.0  T
   2    -87.8021597 -0.283044E-06  0.938E-03    3.07       1.6  T
   3    -87.8021596  0.116891E-06  0.264E-03    3.07       5.5  T
   4    -87.8021598 -0.178571E-06  0.680E-04    3.07      21.5  T
   5    -87.8021598 -0.565788E-08  0.399E-04    3.07      36.6  T
     SCC iter.                  ...        0 min,  0.011 sec
     gradient                   ...        0 min,  0.007 sec
 * total energy  :   -86.8119745 Eh     change       -0.4378095E-04 Eh
   gradient norm :     0.0017492 Eh/α   predicted    -0.2932852E-04 ( -33.01%)
   displ. norm   :     0.1372232 α      lambda       -0.5904541E-04
   maximum displ.:     0.0822293 α      in ANC's #3, #5, #17, ...

........................................................................
.............................. CYCLE   45 ..............................
........................................................................

 iter      E             dE          RMSdq      gap      omega  full diag
   1    -87.8016466 -0.878016E+02  0.402E-02    3.06       0.0  T
   2    -87.8016477 -0.111537E-05  0.237E-02    3.06       1.0  T
   3    -87.8016469  0.792333E-06  0.643E-03    3.06       2.3  T
   4    -87.8016481 -0.116650E-05  0.158E-03    3.06       9.2  T
   5    -87.8016481 -0.255814E-07  0.108E-03    3.06      13.5  T
   6    -87.8016481 -0.119365E-07  0.743E-04    3.06      19.6  T
   7    -87.8016481 -0.822277E-08  0.468E-04    3.06      31.2  T
     SCC iter.                  ...        0 min,  0.021 sec
     gradient                   ...        0 min,  0.008 sec
 * total energy  :   -86.8120228 Eh     change       -0.4835630E-04 Eh
   gradient norm :     0.0040218 Eh/α   predicted    -0.2977093E-04 ( -38.43%)
   displ. norm   :     0.0724347 α      lambda       -0.3432965E-04
   maximum displ.:     0.0444974 α      in ANC's #3, #5, #1, ...

........................................................................
.............................. CYCLE   46 ..............................
........................................................................

 iter      E             dE          RMSdq      gap      omega  full diag
   1    -87.8017035 -0.878017E+02  0.195E-02    3.06       0.0  T
   2    -87.8017037 -0.132131E-06  0.114E-02    3.06       1.3  T
   3    -87.8017036  0.754314E-07  0.207E-03    3.06       7.0  T
   4    -87.8017037 -0.136445E-06  0.718E-04    3.06      20.3  T
   5    -87.8017037 -0.377609E-08  0.512E-04    3.06      28.5  T
     SCC iter.                  ...        0 min,  0.013 sec
     gradient                   ...        0 min,  0.008 sec
 * total energy  :   -86.8120550 Eh     change       -0.3214169E-04 Eh
   gradient norm :     0.0035629 Eh/α   predicted    -0.1753096E-04 ( -45.46%)
   displ. norm   :     0.2947395 α      lambda       -0.1392989E-03
   maximum displ.:     0.1699694 α      in ANC's #3, #5, #1, ...

........................................................................
.............................. CYCLE   47 ..............................
........................................................................

 iter      E             dE          RMSdq      gap      omega  full diag
   1    -87.8014175 -0.878014E+02  0.792E-02    3.05       0.0  T
   2    -87.8014195 -0.202006E-05  0.462E-02    3.05       1.0  T
   3    -87.8014191  0.483006E-06  0.637E-03    3.05       2.3  T
   4    -87.8014203 -0.128002E-05  0.254E-03    3.05       5.7  T
   5    -87.8014204 -0.546646E-07  0.167E-03    3.05       8.7  T
   6    -87.8014204 -0.270598E-07  0.105E-03    3.05      13.9  T
   7    -87.8014204 -0.129014E-07  0.696E-04    3.05      20.9  T
   8    -87.8014204 -0.813712E-08  0.367E-04    3.05      39.8  T
     SCC iter.                  ...        0 min,  0.021 sec
     gradient                   ...        0 min,  0.008 sec
 * total energy  :   -86.8121678 Eh     change       -0.1128788E-03 Eh
   gradient norm :     0.0028771 Eh/α   predicted    -0.7569996E-04 ( -32.94%)
   displ. norm   :     0.4222113 α      lambda       -0.1446105E-03
   maximum displ.:     0.2417079 α      in ANC's #3, #5, #1, ...

........................................................................
.............................. CYCLE   48 ..............................
........................................................................

 iter      E             dE          RMSdq      gap      omega  full diag
   1    -87.7996979 -0.877997E+02  0.115E-01    3.03       0.0  T
   2    -87.7997015 -0.360223E-05  0.668E-02    3.03       1.0  T
   3    -87.7997012  0.381209E-06  0.756E-03    3.03       1.9  T
   4    -87.7997029 -0.174585E-05  0.324E-03    3.03       4.5  T
   5    -87.7997030 -0.990198E-07  0.197E-03    3.03       7.4  T
   6    -87.7997030 -0.345959E-07  0.120E-03    3.03      12.2  T
   7    -87.7997031 -0.135692E-07  0.806E-04    3.03      18.1  T
   8    -87.7997031 -0.944718E-08  0.424E-04    3.03      34.4  T
     SCC iter.                  ...        0 min,  0.019 sec
     gradient                   ...        0 min,  0.008 sec
 * total energy  :   -86.8122757 Eh     change       -0.1079168E-03 Eh
   gradient norm :     0.0053707 Eh/α   predicted    -0.8523203E-04 ( -21.02%)
   displ. norm   :     0.3526456 α      lambda       -0.1172680E-03
   maximum displ.:     0.2028727 α      in ANC's #3, #5, #1, ...

........................................................................
.............................. CYCLE   49 ..............................
........................................................................

 iter      E             dE          RMSdq      gap      omega  full diag
   1    -87.7994651 -0.877995E+02  0.963E-02    3.02       0.0  T
   2    -87.7994676 -0.246398E-05  0.562E-02    3.02       1.0  T
   3    -87.7994670  0.513270E-06  0.666E-03    3.02       2.2  T
   4    -87.7994685 -0.141718E-05  0.260E-03    3.02       5.6  T
   5    -87.7994685 -0.634759E-07  0.148E-03    3.02       9.9  T
   6    -87.7994685 -0.200810E-07  0.878E-04    3.02      16.6  T
   7    -87.7994686 -0.661009E-08  0.597E-04    3.02      24.4  T
     SCC iter.                  ...        0 min,  0.019 sec
     gradient                   ...        0 min,  0.007 sec
 * total energy  :   -86.8123649 Eh     change       -0.8913255E-04 Eh
   gradient norm :     0.0058986 Eh/α   predicted    -0.6592669E-04 ( -26.04%)
   displ. norm   :     0.3142902 α      lambda       -0.1574436E-03
   maximum displ.:     0.1786658 α      in ANC's #3, #5, #1, ...

........................................................................
.............................. CYCLE   50 ..............................
........................................................................

 iter      E             dE          RMSdq      gap      omega  full diag
   1    -87.8024015 -0.878024E+02  0.880E-02    3.03       0.0  T
   2    -87.8024040 -0.256370E-05  0.514E-02    3.03       1.0  T
   3    -87.8024029  0.108432E-05  0.814E-03    3.03       1.8  T
   4    -87.8024049 -0.191253E-05  0.242E-03    3.03       6.0  T
   5    -87.8024049 -0.422763E-07  0.135E-03    3.03      10.8  T
   6    -87.8024049 -0.214377E-07  0.773E-04    3.03      18.9  T
   7    -87.8024049 -0.499799E-08  0.519E-04    3.03      28.1  T
     SCC iter.                  ...        0 min,  0.021 sec
     gradient                   ...        0 min,  0.006 sec
 * total energy  :   -86.8124800 Eh     change       -0.1150845E-03 Eh
   gradient norm :     0.0041368 Eh/α   predicted    -0.8649806E-04 ( -24.84%)
   displ. norm   :     0.4799296 α      lambda       -0.1485801E-03
   maximum displ.:     0.2688058 α      in ANC's #3, #5, #1, ...

........................................................................
.............................. CYCLE   51 ..............................
........................................................................

 iter      E             dE          RMSdq      gap      omega  full diag
   1    -87.8004477 -0.878004E+02  0.133E-01    3.02       0.0  T
   2    -87.8004542 -0.648909E-05  0.777E-02    3.02       1.0  T
   3    -87.8004519  0.230928E-05  0.107E-02    3.02       1.4  T
   4    -87.8004559 -0.398740E-05  0.367E-03    3.02       4.0  T
   5    -87.8004561 -0.197079E-06  0.208E-03    3.02       7.0  T
   6    -87.8004561 -0.348261E-07  0.122E-03    3.02      12.0  T
   7    -87.8004561 -0.129107E-07  0.838E-04    3.02      17.4  T
   8    -87.8004561 -0.953624E-08  0.440E-04    3.02      33.2  T
     SCC iter.                  ...        0 min,  0.022 sec
     gradient                   ...        0 min,  0.008 sec
 * total energy  :   -86.8125762 Eh     change       -0.9623432E-04 Eh
   gradient norm :     0.0061866 Eh/α   predicted    -0.9141006E-04 (  -5.01%)
   displ. norm   :     0.2638419 α      lambda       -0.1552399E-03
   maximum displ.:     0.1307477 α      in ANC's #3, #1, #5, ...

........................................................................
.............................. CYCLE   52 ..............................
........................................................................

 iter      E             dE          RMSdq      gap      omega  full diag
   1    -87.8038822 -0.878039E+02  0.763E-02    3.04       0.0  T
   2    -87.8038842 -0.202989E-05  0.446E-02    3.03       1.0  T
   3    -87.8038832  0.101591E-05  0.728E-03    3.03       2.0  T
   4    -87.8038847 -0.153358E-05  0.203E-03    3.03       7.2  T
   5    -87.8038847 -0.462003E-07  0.118E-03    3.03      12.4  T
   6    -87.8038848 -0.130374E-07  0.757E-04    3.03      19.3  T
   7    -87.8038848 -0.656055E-08  0.473E-04    3.03      30.9  T
     SCC iter.                  ...        0 min,  0.017 sec
     gradient                   ...        0 min,  0.007 sec
 * total energy  :   -86.8126728 Eh     change       -0.9664209E-04 Eh
   gradient norm :     0.0050530 Eh/α   predicted    -0.8302909E-04 ( -14.09%)
   displ. norm   :     0.4494663 α      lambda       -0.1080199E-03
   maximum displ.:     0.2399856 α      in ANC's #3, #5, #1, ...

........................................................................
.............................. CYCLE   53 ..............................
........................................................................

 iter      E             dE          RMSdq      gap      omega  full diag
   1    -87.8005761 -0.878006E+02  0.125E-01    3.03       0.0  T
   2    -87.8005785 -0.238901E-05  0.734E-02    3.03       1.0  T
   3    -87.8005774  0.107023E-05  0.724E-03    3.03       2.0  T
   4    -87.8005796 -0.219338E-05  0.253E-03    3.03       5.8  T
   5    -87.8005796 -0.359999E-07  0.116E-03    3.03      12.6  T
   6    -87.8005797 -0.122846E-07  0.790E-04    3.03      18.5  T
   7    -87.8005797 -0.674373E-08  0.492E-04    3.03      29.7  T
     SCC iter.                  ...        0 min,  0.020 sec
     gradient                   ...        0 min,  0.007 sec
 * total energy  :   -86.8127524 Eh     change       -0.7953329E-04 Eh
   gradient norm :     0.0063825 Eh/α   predicted    -0.6494321E-04 ( -18.34%)
   displ. norm   :     0.3898470 α      lambda       -0.1600755E-03
   maximum displ.:     0.1862897 α      in ANC's #1, #3, #5, ...

........................................................................
.............................. CYCLE   54 ..............................
........................................................................

 iter      E             dE          RMSdq      gap      omega  full diag
   1    -87.7999370 -0.877999E+02  0.109E-01    3.03       0.0  T
   2    -87.7999393 -0.232985E-05  0.639E-02    3.03       1.0  T
   3    -87.7999369  0.236847E-05  0.962E-03    3.03       1.5  T
   4    -87.7999402 -0.327131E-05  0.200E-03    3.03       7.3  T
   5    -87.7999402 -0.284385E-07  0.100E-03    3.03      14.6  T
   6    -87.7999402 -0.581304E-08  0.532E-04    3.03      27.4  T
   7    -87.7999402 -0.232571E-08  0.355E-04    3.03      41.1  T
     SCC iter.                  ...        0 min,  0.018 sec
     gradient                   ...        0 min,  0.007 sec
 * total energy  :   -86.8128748 Eh     change       -0.1223832E-03 Eh
   gradient norm :     0.0057956 Eh/α   predicted    -0.9221444E-04 ( -24.65%)
   displ. norm   :     0.2967455 α      lambda       -0.2099932E-03
   maximum displ.:     0.1586428 α      in ANC's #1, #5, #6, ...

........................................................................
.............................. CYCLE   55 ..............................
........................................................................

 iter      E             dE          RMSdq      gap      omega  full diag
[...]
          :  # shells                           78          :
          :  # electrons                       152          :
          :  max. iterations                   250          :
          :  Hamiltonian                  GFN2-xTB          :
          :  restarted?                      false          :
          :  GBSA solvation                   true          :
          :  PC potential                    false          :
          :  electronic temp.          300.0000000     K    :
          :  accuracy                    1.0000000          :
          :  -> integral cutoff          0.2500000E+02      :
          :  -> integral neglect         0.1000000E-07      :
          :  -> SCF convergence          0.1000000E-05 Eh   :
          :  -> wf. convergence          0.1000000E-03 e    :
          :  Broyden damping             0.4000000          :
          ...................................................

 iter      E             dE          RMSdq      gap      omega  full diag
   1    -87.8053748 -0.878054E+02  0.141E-04    3.09       0.0  T
   2    -87.8053748 -0.104023E-09  0.114E-04    3.09     127.7  T
   3    -87.8053748 -0.969322E-10  0.752E-05    3.09     194.0  T

   *** convergence criteria satisfied after 3 iterations ***

         #    Occupation            Energy/Eh            Energy/eV
      -------------------------------------------------------------
         1        2.0000           -1.0703703             -29.1263
       ...           ...                  ...                  ...
        70        2.0000           -0.4260424             -11.5932
        71        2.0000           -0.4221071             -11.4861
        72        2.0000           -0.4218532             -11.4792
        73        2.0000           -0.4182108             -11.3801
        74        2.0000           -0.4134233             -11.2498
        75        2.0000           -0.4030953             -10.9688
        76        2.0000           -0.3805656             -10.3557 (HOMO)
        77                         -0.2671667              -7.2700 (LUMO)
        78                         -0.2639729              -7.1831
        79                         -0.2630022              -7.1567
        80                         -0.2619946              -7.1292
        81                         -0.2392584              -6.5106
       ...                                ...                  ...
       144                          0.6966223              18.9561
      -------------------------------------------------------------
                  HL-Gap            0.1133990 Eh            3.0857 eV
             Fermi-level           -0.3238661 Eh           -8.8128 eV

 SCC (total)                   0 d,  0 h,  0 min,  0.019 sec
 SCC setup                      ...        0 min,  0.001 sec (  2.939%)
 Dispersion                     ...        0 min,  0.000 sec (  1.573%)
 classical contributions        ...        0 min,  0.000 sec (  0.547%)
 integral evaluation            ...        0 min,  0.002 sec ( 11.764%)
 iterations                     ...        0 min,  0.007 sec ( 38.562%)
 molecular gradient             ...        0 min,  0.008 sec ( 42.504%)
 printout                       ...        0 min,  0.000 sec (  2.045%)

         :::::::::::::::::::::::::::::::::::::::::::::::::::::
         ::                     SUMMARY                     ::
         :::::::::::::::::::::::::::::::::::::::::::::::::::::
         :: total energy             -86.814103634641 Eh    ::
         :: total w/o Gsasa/hb       -86.804729363715 Eh    ::
         :: gradient norm              0.000252710446 Eh/a0 ::
         :: HOMO-LUMO gap              3.085743780751 eV    ::
         ::.................................................::
         :: SCC energy               -87.805374831939 Eh    ::
         :: -> isotropic ES            0.182028136391 Eh    ::
         :: -> anisotropic ES         -0.007160113199 Eh    ::
         :: -> anisotropic XC          0.029320470573 Eh    ::
         :: -> dispersion             -0.061428497963 Eh    ::
         :: -> Gsolv                  -0.044862693707 Eh    ::
         ::    -> Gelec               -0.035488422781 Eh    ::
         ::    -> Gsasa                0.003035831180 Eh    ::
         ::    -> Ghb                 -0.013490861805 Eh    ::
         ::    -> Gshift               0.001080759698 Eh    ::
         :: repulsion energy           0.990680869542 Eh    ::
         :: add. restraining           0.000000000000 Eh    ::
         :: total charge              -0.000000000000 e     ::
         :::::::::::::::::::::::::::::::::::::::::::::::::::::

           -------------------------------------------------
          |                Property Printout                |
           -------------------------------------------------

    * Orbital Energies and Occupations

         #    Occupation            Energy/Eh            Energy/eV
      -------------------------------------------------------------
         1        2.0000           -1.0703703             -29.1263
       ...           ...                  ...                  ...
        64        2.0000           -0.4519759             -12.2989
        65        2.0000           -0.4488451             -12.2137
        66        2.0000           -0.4485727             -12.2063
        67        2.0000           -0.4410679             -12.0021
        68        2.0000           -0.4308144             -11.7231
        69        2.0000           -0.4267468             -11.6124
        70        2.0000           -0.4260424             -11.5932
        71        2.0000           -0.4221071             -11.4861
        72        2.0000           -0.4218532             -11.4792
        73        2.0000           -0.4182108             -11.3801
        74        2.0000           -0.4134233             -11.2498
        75        2.0000           -0.4030953             -10.9688
        76        2.0000           -0.3805656             -10.3557 (HOMO)
        77                         -0.2671667              -7.2700 (LUMO)
        78                         -0.2639729              -7.1831
        79                         -0.2630022              -7.1567
        80                         -0.2619946              -7.1292
        81                         -0.2392584              -6.5106
        82                         -0.2328503              -6.3362
        83                         -0.2241224              -6.0987
        84                         -0.1736553              -4.7254
        85                         -0.1566325              -4.2622
        86                         -0.1495105              -4.0684
        87                         -0.1080916              -2.9413
       ...                                ...                  ...
       144                          0.6966223              18.9561
      -------------------------------------------------------------
                  HL-Gap            0.1133990 Eh            3.0857 eV
             Fermi-level           -0.3238661 Eh           -8.8128 eV

     #   Z          covCN         q      C6AA      α(0)
     1   6 C        3.753    -0.151    23.478     6.909
     2   6 C        3.011     0.146    24.819     8.172
     3   6 C        3.010    -0.074    29.837     8.960
     4   6 C        3.045     0.096    25.833     8.336
     5   7 N        1.944    -0.171    25.495     7.487
     6   8 O        1.821    -0.123    16.142     5.426
     7   6 C        3.002     0.005    27.897     8.664
     8   6 C        2.929    -0.029    28.731     8.790
     9   6 C        2.918    -0.034    28.836     8.806
    10   6 C        2.923    -0.029    28.732     8.790
    11   6 C        2.956    -0.041    29.007     8.834
    12   6 C        2.893     0.102    25.750     8.320
    13  17 Cl       0.961    -0.215   105.953    15.748
    14   6 C        2.757     0.287    22.143     7.706
    15   8 O        0.859    -0.509    23.975     6.565
    16   7 N        2.692    -0.170    24.677     7.378
    17   6 C        3.996     0.018    20.191     6.384
    18   6 C        4.128     0.076    19.242     6.230
    19   7 N        3.017    -0.116    23.522     7.203
    20   6 C        3.087     0.285    22.114     7.708
    21   8 O        0.856    -0.440    22.491     6.358
    22   6 C        3.842     0.021    20.195     6.393
    23   6 C        3.894     0.069    19.377     6.258
    24  16 S        2.136    -0.199   149.533    20.581
    25   6 C        3.789    -0.126    22.933     6.820
    26   6 C        3.790    -0.129    22.986     6.828
    27   6 C        2.691     0.373    20.678     7.442
    28   8 O        0.856    -0.460    22.925     6.419
    29   8 O        1.659    -0.393    20.710     6.143
    30   1 H        0.925     0.105     1.743     2.064
    31   1 H        0.925     0.102     1.769     2.080
    32   1 H        0.925     0.108     1.712     2.046
    33   1 H        0.926     0.070     2.084     2.257
    34   1 H        0.926     0.075     2.028     2.227
    35   1 H        0.926     0.076     2.025     2.225
    36   1 H        0.926     0.070     2.089     2.260
    37   1 H        0.860     0.222     1.000     1.567
    38   1 H        0.924     0.093     1.852     2.128
    39   1 H        0.925     0.073     2.055     2.242
    40   1 H        0.924     0.101     1.778     2.085
    41   1 H        0.925     0.043     2.415     2.430
    42   1 H        0.925     0.073     2.056     2.242
    43   1 H        0.925     0.080     1.979     2.200
    44   1 H        0.925     0.082     1.961     2.190
    45   1 H        0.925     0.075     2.031     2.229
    46   1 H        0.925     0.053     2.284     2.363
    47   1 H        0.803     0.434     0.427     1.026

 Mol. C6AA /au·bohr⁶  :      31559.318748
 Mol. C8AA /au·bohr⁸  :     828112.049970
 Mol. α(0) /au        :        273.521376


Wiberg/Mayer (AO) data.
largest (>0.10) Wiberg bond orders for each atom

 ---------------------------------------------------------------------------
     #   Z sym  total        # sym  WBO       # sym  WBO       # sym  WBO
 ---------------------------------------------------------------------------
     1   6 C    3.974 --     2 C    1.037    32 H    0.968    31 H    0.959
                            30 H    0.945
     2   6 C    3.916 --     3 C    1.480     6 O    1.169     1 C    1.037
                             5 N    0.143
     3   6 C    3.971 --     2 C    1.480     4 C    1.218    14 C    1.018
     4   6 C    3.976 --     5 N    1.569     3 C    1.218     7 C    1.037
     5   7 N    2.937 --     4 C    1.569     6 O    1.076     2 C    0.143
     6   8 O    2.451 --     2 C    1.169     5 N    1.076
     7   6 C    3.987 --     8 C    1.385    12 C    1.366     4 C    1.037
                            10 C    0.105
     8   6 C    3.985 --     9 C    1.448     7 C    1.385    33 H    0.966
                            11 C    0.107
     9   6 C    3.988 --     8 C    1.448    10 C    1.433    34 H    0.965
    10   6 C    3.985 --    11 C    1.434     9 C    1.433    35 H    0.966
                             7 C    0.105
    11   6 C    3.985 --    10 C    1.434    12 C    1.417    36 H    0.965
                             8 C    0.107
    12   6 C    3.903 --    11 C    1.417     7 C    1.366    13 Cl   0.946
    13  17 Cl   1.080 --    12 C    0.946
    14   6 C    3.945 --    15 O    1.619    16 N    1.236     3 C    1.018
    15   8 O    1.948 --    14 C    1.619    16 N    0.182
    16   7 N    3.458 --    14 C    1.236    17 C    1.018    37 H    0.913
                            15 O    0.182
    17   6 C    3.968 --    16 N    1.018    18 C    0.948    38 H    0.943
                            20 C    0.913
    18   6 C    3.951 --    19 N    0.988    24 S    0.965    39 H    0.962
                            17 C    0.948
    19   7 N    3.472 --    20 C    1.209    18 C    0.988    22 C    0.979
                            21 O    0.195
    20   6 C    3.939 --    21 O    1.712    19 N    1.209    17 C    0.913
    21   8 O    2.044 --    20 C    1.712    19 N    0.195
    22   6 C    3.963 --    19 N    0.979    40 H    0.945    27 C    0.943
                            23 C    0.932
    23   6 C    3.960 --    26 C    1.009    25 C    1.008    22 C    0.932
                            24 S    0.932
    24  16 S    2.076 --    18 C    0.965    23 C    0.932
    25   6 C    3.988 --    23 C    1.008    41 H    0.982    43 H    0.977
                            42 H    0.974
    26   6 C    3.984 --    23 C    1.009    46 H    0.981    44 H    0.978
                            45 H    0.973
    27   6 C    3.921 --    28 O    1.718    29 O    1.209    22 C    0.943
    28   8 O    2.000 --    27 C    1.718    29 O    0.186
    29   8 O    2.211 --    27 C    1.209    47 H    0.786    28 O    0.186
    30   1 H    0.989 --     1 C    0.945
    31   1 H    0.990 --     1 C    0.959
    32   1 H    0.988 --     1 C    0.968
    33   1 H    0.995 --     8 C    0.966
    34   1 H    0.993 --     9 C    0.965
    35   1 H    0.994 --    10 C    0.966
    36   1 H    0.994 --    11 C    0.965
    37   1 H    0.951 --    16 N    0.913
    38   1 H    0.991 --    17 C    0.943
    39   1 H    0.994 --    18 C    0.962
    40   1 H    0.990 --    22 C    0.945
    41   1 H    0.998 --    25 C    0.982
    42   1 H    0.995 --    25 C    0.974
    43   1 H    0.993 --    25 C    0.977
    44   1 H    0.992 --    26 C    0.978
    45   1 H    0.994 --    26 C    0.973
    46   1 H    0.997 --    26 C    0.981
    47   1 H    0.811 --    29 O    0.786
 ---------------------------------------------------------------------------

Topologies differ in total number of bonds
Writing topology from bond orders to xtbtopo.mol

molecular dipole:
                 x           y           z       tot (Debye)
 q only:       -2.858       1.739       0.506
   full:       -3.475       0.999       0.350       9.233
molecular quadrupole (traceless):
                xx          xy          yy          xz          yz          zz
 q only:       53.071      -9.534     -17.832      10.247      -2.477     -35.239
  q+dip:       45.667      -8.695     -14.419      10.389      -2.001     -31.247
   full:       45.383      -8.388     -15.071      10.011      -2.536     -30.312

           -------------------------------------------------
          |                Geometry Summary                 |
           -------------------------------------------------

      molecular mass/u    :      435.8817748
   center of mass at/Å    :        0.3360080      -0.1799495      -0.1719578
  moments of inertia/u·Å² :        0.1460391E+04   0.6619898E+04   0.7279841E+04
rotational constants/cm⁻¹ :        0.1154323E-01   0.2546510E-02   0.2315659E-02

 * 44 selected distances

     #   Z          #   Z                                           value/Å
     1   6 C        2   6 C                                       1.4800487
     2   6 C        3   6 C                                       1.3791683
     3   6 C        4   6 C                                       1.4312774
     4   6 C        5   7 N                                       1.3080103
     2   6 C        6   8 O                                       1.3386536
     5   7 N        6   8 O                                       1.3582172
     7   6 C        8   6 C                                       1.3919118
     8   6 C        9   6 C                                       1.3819783
     9   6 C       10   6 C                                       1.3848798
    10   6 C       11   6 C                                       1.3844130
     7   6 C       12   6 C                                       1.3921222
    11   6 C       12   6 C                                       1.3829069
    12   6 C       13  17 Cl                                      1.7395339
    14   6 C       15   8 O                                       1.2251621
    14   6 C       16   7 N                                       1.3533039
    16   7 N       17   6 C                                       1.4249459
    17   6 C       18   6 C                                       1.5530060
    18   6 C       19   7 N                                       1.4436769
    19   7 N       20   6 C                                       1.3613986
    20   6 C       21   8 O                                       1.2056487
    19   7 N       22   6 C                                       1.4345995
    18   6 C       24  16 S                                       1.8183101 (max)
    23   6 C       25   6 C                                       1.5224313
    23   6 C       26   6 C                                       1.5191337
    27   6 C       28   8 O                                       1.2083074
    27   6 C       29   8 O                                       1.3125886
     1   6 C       30   1 H                                       1.0896355
     1   6 C       31   1 H                                       1.0876255
     1   6 C       32   1 H                                       1.0865904
     8   6 C       33   1 H                                       1.0780595
     9   6 C       34   1 H                                       1.0779716
    10   6 C       35   1 H                                       1.0780897
    11   6 C       36   1 H                                       1.0781727
    16   7 N       37   1 H                                       1.0092063
    17   6 C       38   1 H                                       1.0928028
    18   6 C       39   1 H                                       1.0893990
    22   6 C       40   1 H                                       1.0923944
    25   6 C       41   1 H                                       1.0890027
    25   6 C       42   1 H                                       1.0874415
    25   6 C       43   1 H                                       1.0865014
    26   6 C       44   1 H                                       1.0863281
    26   6 C       45   1 H                                       1.0874323
    26   6 C       46   1 H                                       1.0877633
    29   8 O       47   1 H                                       0.9791889 (min)

 * 9 distinct bonds (by element types)

   Z      Z             #   av. dist./Å        max./Å        min./Å
   1 H    6 C          16     1.0859507     1.0928028     1.0779716
   6 C    6 C          12     1.4336064     1.5530060     1.3791683
   1 H    7 N           1     1.0092063     1.0092063     1.0092063
   6 C    7 N           6     1.3876559     1.4436769     1.3080103
   1 H    8 O           1     0.9791889     0.9791889     0.9791889
   6 C    8 O           5     1.2580721     1.3386536     1.2056487
   7 N    8 O           1     1.3582172     1.3582172     1.3582172
   6 C   16 S           1     1.8183101     1.8183101     1.8183101
   6 C   17 Cl          1     1.7395339     1.7395339     1.7395339


optimized geometry written to: xtbopt.xyz


           -------------------------------------------------
          | TOTAL ENERGY              -86.814103634641 Eh   |
          | GRADIENT NORM               0.000252710446 Eh/α |
          | HOMO-LUMO GAP               3.085743780751 eV   |
           -------------------------------------------------

------------------------------------------------------------------------
 * finished run on 2024/09/05 at 11:50:52.063     
------------------------------------------------------------------------
 total:
 * wall-time:     0 d,  0 h,  0 min,  2.935 sec
 *  cpu-time:     0 d,  0 h,  0 min, 22.894 sec
 * ratio c/w:     7.800 speedup
 SCF:
 * wall-time:     0 d,  0 h,  0 min,  0.065 sec
 *  cpu-time:     0 d,  0 h,  0 min,  0.461 sec
 * ratio c/w:     7.088 speedup
 ANC optimizer:
 * wall-time:     0 d,  0 h,  0 min,  2.695 sec
 *  cpu-time:     0 d,  0 h,  0 min, 21.132 sec
 * ratio c/w:     7.840 speedup

