      -----------------------------------------------------------      
     |                   =====================                   |     
     |                           x T B                           |     
     |                   =====================                   |     
     |                         S. Grimme                         |     
     |          Mulliken Center for Theoretical Chemistry        |     
     |                    University of Bonn                     |     
      -----------------------------------------------------------      

   * xtb version 6.6.0 (conda-forge) compiled by 'runner@Mac-1676020848589.local' on 2023-02-10

   xtb is free software: you can redistribute it and/or modify it under
   the terms of the GNU Lesser General Public License as published by
   the Free Software Foundation, either version 3 of the License, or
   (at your option) any later version.
   
   xtb is distributed in the hope that it will be useful,
   but WITHOUT ANY WARRANTY; without even the implied warranty of
   MERCHANTABILITY or FITNESS FOR A PARTICULAR PURPOSE.  See the
   GNU Lesser General Public License for more details.
   
   Cite this work as:
   * C. Bannwarth, E. Caldeweyher, S. Ehlert, A. Hansen, P. Pracht,
     J. Seibert, S. Spicher, S. Grimme, WIREs Comput. Mol. Sci., 2020, 11,
     e01493. DOI: 10.1002/wcms.1493
   
   for GFN2-xTB:
   * C. Bannwarth, S. Ehlert and S. Grimme., J. Chem. Theory Comput., 2019,
     15, 1652-1671. DOI: 10.1021/acs.jctc.8b01176
   for GFN1-xTB:
   * S. Grimme, C. Bannwarth, P. Shushkov, J. Chem. Theory Comput., 2017,
     13, 1989-2009. DOI: 10.1021/acs.jctc.7b00118
   for GFN0-xTB:
   * P. Pracht, E. Caldeweyher, S. Ehlert, S. Grimme, ChemRxiv, 2019, preprint.
     DOI: 10.26434/chemrxiv.8326202.v1
   for GFN-FF:
   * S. Spicher and S. Grimme, Angew. Chem. Int. Ed., 2020, 59, 15665-15673.
     DOI: 10.1002/anie.202004239
   
   for ALPB and GBSA implicit solvation:
   * S. Ehlert, M. Stahn, S. Spicher, S. Grimme, J. Chem. Theory Comput.,
     2021, 17, 4250-4261. DOI: 10.1021/acs.jctc.1c00471
   
   for DFT-D4:
   * E. Caldeweyher, C. Bannwarth and S. Grimme, J. Chem. Phys., 2017,
     147, 034112. DOI: 10.1063/1.4993215
   * E. Caldeweyher, S. Ehlert, A. Hansen, H. Neugebauer, S. Spicher,
     C. Bannwarth and S. Grimme, J. Chem. Phys., 2019, 150, 154122.
     DOI: 10.1063/1.5090222
   * E. Caldeweyher, J.-M. Mewes, S. Ehlert and S. Grimme, Phys. Chem. Chem. Phys.
     2020, 22, 8499-8512. DOI: 10.1039/D0CP00502A
   
   for sTDA-xTB:
   * S. Grimme and C. Bannwarth, J. Chem. Phys., 2016, 145, 054103.
     DOI: 10.1063/1.4959605
   
   in the mass-spec context:
   * V. Asgeirsson, C. Bauer and S. Grimme, Chem. Sci., 2017, 8, 4879.
     DOI: 10.1039/c7sc00601b
   * J. Koopman and S. Grimme, ACS Omega 2019, 4, 12, 15120-15133.
     DOI: 10.1021/acsomega.9b02011
   
   for metadynamics refer to:
   * S. Grimme, J. Chem. Theory Comput., 2019, 155, 2847-2862
     DOI: 10.1021/acs.jctc.9b00143
   
   for SPH calculations refer to:
   * S. Spicher and S. Grimme, J. Chem. Theory Comput., 2021, 17, 1701-1714
     DOI: 10.1021/acs.jctc.0c01306
   
   with help from (in alphabetical order)
   P. Atkinson, C. Bannwarth, F. Bohle, G. Brandenburg, E. Caldeweyher
   M. Checinski, S. Dohm, S. Ehlert, S. Ehrlich, I. Gerasimov, C. Hölzer
   A. Katbashev, J. Koopman, C. Lavigne, S. Lehtola, F. März, M. Müller,
   F. Musil, H. Neugebauer, J. Pisarek, C. Plett, P. Pracht, F. Pultar,
   J. Seibert, P. Shushkov, S. Spicher, M. Stahn, M. Steiner, T. Strunk,
   J. Stückrath, T. Rose, and J. Unsleber
   
 * started run on 2024/09/05 at 11:50:52.096     

           -------------------------------------------------
          |                Calculation Setup                |
           -------------------------------------------------

          program call               : xtb xtbopt.xyz --gfn2 --chrg 0 --hess --alpb water
          coordinate file            : xtbopt.xyz
          omp threads                :                     8

   ID    Z sym.   atoms
    1    6 C      1-4, 7-12, 14, 17, 18, 20, 22, 23, 25-27
    2    7 N      5, 16, 19
    3    8 O      6, 15, 21, 28, 29
    4   17 Cl     13
    5   16 S      24
    6    1 H      30-47

           -------------------------------------------------
          |                 G F N 2 - x T B                 |
           -------------------------------------------------

        Reference                      10.1021/acs.jctc.8b01176
      * Hamiltonian:
        H0-scaling (s, p, d)           1.850000    2.230000    2.230000
        zeta-weighting                 0.500000
      * Dispersion:
        s8                             2.700000
        a1                             0.520000
        a2                             5.000000
        s9                             5.000000
      * Repulsion:
        kExp                           1.500000    1.000000
        rExp                           1.000000
      * Coulomb:
        alpha                          2.000000
        third order                    shell-resolved
        anisotropic                    true
        a3                             3.000000
        a5                             4.000000
        cn-shift                       1.200000
        cn-exp                         4.000000
        max-rad                        5.000000

      * Solvation model:               ALPB
        Solvent                        water
        Parameter file                 internal GFN2-xTB/ALPB
        Dielectric constant                8.0200E+01
        Reference state                gsolv [1 M gas/solution]
        Free energy shift                  1.0808E-03 Eh       6.7819E-01 kcal/mol
        Temperature                        2.9815E+02 K
        Density                            1.0000E+00 kg/L
        Solvent mass                       1.8000E+01 g/mol
        Interaction kernel             P16
        Born radius scaling (c1)           1.4744E+00
        Born radii integrator          GBOBC
        Born offset                        0.0000E+00 a0       0.0000E+00 AA
        H-bond correction              true
        Ion screening                  false
        Surface tension                    1.0000E-05 Eh       1.5569E+01 dyn/cm
        Grid points                               230 per atom
q/qsh data taken from xtbrestart
CAMM data taken from xtbrestart

          ...................................................
          :                      SETUP                      :
          :.................................................:
          :  # basis functions                 146          :
          :  # atomic orbitals                 144          :
          :  # shells                           78          :
          :  # electrons                       152          :
          :  max. iterations                   250          :
          :  Hamiltonian                  GFN2-xTB          :
          :  restarted?                       true          :
          :  GBSA solvation                   true          :
          :  PC potential                    false          :
          :  electronic temp.          300.0000000     K    :
          :  accuracy                    1.0000000          :
          :  -> integral cutoff          0.2500000E+02      :
          :  -> integral neglect         0.1000000E-07      :
          :  -> SCF convergence          0.1000000E-05 Eh   :
          :  -> wf. convergence          0.1000000E-03 e    :
          :  Broyden damping             0.4000000          :
          ...................................................

 iter      E             dE          RMSdq      gap      omega  full diag
   1    -87.8053748 -0.878054E+02  0.312E-05    3.09       0.0  T
   2    -87.8053748 -0.434852E-11  0.237E-05    3.09     615.9  T
   3    -87.8053748 -0.230216E-11  0.179E-05    3.09     816.7  T

   *** convergence criteria satisfied after 3 iterations ***

         #    Occupation            Energy/Eh            Energy/eV
      -------------------------------------------------------------
         1        2.0000           -1.0703704             -29.1263
       ...           ...                  ...                  ...
        70        2.0000           -0.4260419             -11.5932
        71        2.0000           -0.4221066             -11.4861
        72        2.0000           -0.4218528             -11.4792
        73        2.0000           -0.4182103             -11.3801
        74        2.0000           -0.4134230             -11.2498
        75        2.0000           -0.4030950             -10.9688
        76        2.0000           -0.3805653             -10.3557 (HOMO)
        77                         -0.2671665              -7.2700 (LUMO)
        78                         -0.2639725              -7.1831
        79                         -0.2630017              -7.1566
        80                         -0.2619941              -7.1292
        81                         -0.2392582              -6.5105
       ...                                ...                  ...
       144                          0.6966229              18.9561
      -------------------------------------------------------------
                  HL-Gap            0.1133988 Eh            3.0857 eV
             Fermi-level           -0.3238659 Eh           -8.8128 eV

 SCC (total)                   0 d,  0 h,  0 min,  0.032 sec
 SCC setup                      ...        0 min,  0.001 sec (  2.955%)
 Dispersion                     ...        0 min,  0.000 sec (  1.244%)
 classical contributions        ...        0 min,  0.000 sec (  0.315%)
 integral evaluation            ...        0 min,  0.003 sec (  8.127%)
 iterations                     ...        0 min,  0.020 sec ( 62.807%)
 molecular gradient             ...        0 min,  0.007 sec ( 23.569%)
 printout                       ...        0 min,  0.000 sec (  0.925%)

         :::::::::::::::::::::::::::::::::::::::::::::::::::::
         ::                     SUMMARY                     ::
         :::::::::::::::::::::::::::::::::::::::::::::::::::::
         :: total energy             -86.814103634764 Eh    ::
         :: total w/o Gsasa/hb       -86.804729356723 Eh    ::
         :: gradient norm              0.000252945334 Eh/a0 ::
         :: HOMO-LUMO gap              3.085739148365 eV    ::
         ::.................................................::
         :: SCC energy               -87.805374832062 Eh    ::
         :: -> isotropic ES            0.182027520149 Eh    ::
         :: -> anisotropic ES         -0.007159932278 Eh    ::
         :: -> anisotropic XC          0.029320735250 Eh    ::
         :: -> dispersion             -0.061428486891 Eh    ::
         :: -> Gsolv                  -0.044862732165 Eh    ::
         ::    -> Gelec               -0.035488454124 Eh    ::
         ::    -> Gsasa                0.003035831180 Eh    ::
         ::    -> Ghb                 -0.013490868920 Eh    ::
         ::    -> Gshift               0.001080759698 Eh    ::
         :: repulsion energy           0.990680869542 Eh    ::
         :: add. restraining           0.000000000000 Eh    ::
         :: total charge               0.000000000000 e     ::
         :::::::::::::::::::::::::::::::::::::::::::::::::::::

           ------------------------------------------------- 
          |                Numerical Hessian                |
           ------------------------------------------------- 
step length          :   0.00500
SCC accuracy         :   0.30000
Hessian scale factor :   1.00000
frozen atoms in %    :   0.00000    0
RMS gradient         :   0.00025
estimated CPU  time      2.45 min
estimated wall time      0.32 min

writing file <hessian>.

 projected vibrational frequencies (cm⁻¹)
eigval :       -0.00    -0.00     0.00     0.00     0.00     0.00
eigval :        1.69    19.30    21.91    32.24    37.73    54.78
eigval :       63.66    68.95    83.34    94.92   101.59   116.07
eigval :      134.77   138.43   156.32   184.26   205.53   207.08
eigval :      219.59   234.59   241.01   243.83   257.65   271.42
eigval :      276.27   304.61   307.72   314.45   339.20   348.17
eigval :      363.66   383.37   412.38   428.86   436.77   445.81
eigval :      453.78   463.18   505.25   513.77   539.81   579.21
eigval :      581.79   607.18   615.55   624.28   649.68   652.85
eigval :      670.00   678.00   688.64   709.14   726.04   736.07
eigval :      747.07   758.17   780.77   824.72   865.88   877.52
eigval :      899.47   912.28   922.41   927.66   949.67   961.60
eigval :      970.66   973.54   977.14   983.54  1012.49  1019.17
eigval :     1031.00  1051.41  1087.33  1098.19  1107.16  1114.03
eigval :     1118.14  1137.62  1143.79  1149.39  1158.54  1165.86
eigval :     1169.00  1172.85  1194.44  1202.85  1203.96  1214.43
eigval :     1227.58  1231.96  1239.84  1284.71  1291.92  1311.97
eigval :     1346.69  1375.20  1385.50  1396.32  1407.96  1412.57
eigval :     1414.17  1435.23  1442.53  1442.72  1464.39  1478.03
eigval :     1480.67  1491.67  1530.55  1564.12  1572.13  1590.40
eigval :     1650.60  1726.39  1787.92  2967.63  2979.89  2982.27
eigval :     3004.69  3018.79  3034.54  3036.74  3037.37  3037.86
eigval :     3052.03  3056.87  3061.45  3099.89  3104.54  3110.96
eigval :     3116.92  3304.03  3434.91
           -------------------------------------------------
          |                Property Printout                |
           -------------------------------------------------

    * Orbital Energies and Occupations

         #    Occupation            Energy/Eh            Energy/eV
      -------------------------------------------------------------
         1        2.0000           -1.0703704             -29.1263
       ...           ...                  ...                  ...
        64        2.0000           -0.4519754             -12.2989
        65        2.0000           -0.4488448             -12.2137
        66        2.0000           -0.4485725             -12.2063
        67        2.0000           -0.4410676             -12.0021
        68        2.0000           -0.4308138             -11.7230
        69        2.0000           -0.4267462             -11.6124
        70        2.0000           -0.4260418             -11.5932
        71        2.0000           -0.4221066             -11.4861
        72        2.0000           -0.4218526             -11.4792
        73        2.0000           -0.4182102             -11.3801
        74        2.0000           -0.4134229             -11.2498
        75        2.0000           -0.4030949             -10.9688
        76        2.0000           -0.3805652             -10.3557 (HOMO)
        77                         -0.2671663              -7.2700 (LUMO)
        78                         -0.2639724              -7.1831
        79                         -0.2630016              -7.1566
        80                         -0.2619940              -7.1292
        81                         -0.2392581              -6.5105
        82                         -0.2328499              -6.3362
        83                         -0.2241218              -6.0987
        84                         -0.1736549              -4.7254
        85                         -0.1566317              -4.2622
        86                         -0.1495095              -4.0684
        87                         -0.1080913              -2.9413
       ...                                ...                  ...
       144                          0.6966229              18.9561
      -------------------------------------------------------------
                  HL-Gap            0.1133990 Eh            3.0857 eV
             Fermi-level           -0.3238657 Eh           -8.8128 eV

     #   Z          covCN         q      C6AA      α(0)
     1   6 C        3.753    -0.151    23.478     6.909
     2   6 C        3.011     0.146    24.819     8.172
     3   6 C        3.010    -0.074    29.837     8.960
     4   6 C        3.045     0.096    25.833     8.336
     5   7 N        1.944    -0.171    25.495     7.487
     6   8 O        1.821    -0.123    16.142     5.426
     7   6 C        3.002     0.005    27.897     8.664
     8   6 C        2.929    -0.029    28.731     8.790
     9   6 C        2.918    -0.034    28.836     8.806
    10   6 C        2.923    -0.029    28.732     8.790
    11   6 C        2.956    -0.041    29.007     8.834
    12   6 C        2.893     0.102    25.750     8.320
    13  17 Cl       0.961    -0.215   105.953    15.748
    14   6 C        2.757     0.287    22.143     7.706
    15   8 O        0.859    -0.509    23.975     6.565
    16   7 N        2.692    -0.170    24.677     7.378
    17   6 C        3.996     0.018    20.191     6.384
    18   6 C        4.128     0.076    19.242     6.230
    19   7 N        3.017    -0.116    23.522     7.203
    20   6 C        3.087     0.285    22.114     7.708
    21   8 O        0.856    -0.440    22.491     6.358
    22   6 C        3.842     0.021    20.195     6.393
    23   6 C        3.894     0.069    19.377     6.258
    24  16 S        2.136    -0.199   149.533    20.581
    25   6 C        3.789    -0.126    22.933     6.820
    26   6 C        3.790    -0.129    22.986     6.828
    27   6 C        2.691     0.373    20.678     7.442
    28   8 O        0.856    -0.460    22.925     6.419
    29   8 O        1.659    -0.393    20.710     6.143
    30   1 H        0.925     0.105     1.743     2.064
    31   1 H        0.925     0.102     1.769     2.080
    32   1 H        0.925     0.108     1.712     2.046
    33   1 H        0.926     0.070     2.084     2.257
    34   1 H        0.926     0.075     2.028     2.227
    35   1 H        0.926     0.076     2.025     2.225
    36   1 H        0.926     0.070     2.089     2.260
    37   1 H        0.860     0.222     1.000     1.567
    38   1 H        0.924     0.093     1.852     2.128
    39   1 H        0.925     0.073     2.055     2.242
    40   1 H        0.924     0.101     1.778     2.085
    41   1 H        0.925     0.043     2.415     2.430
    42   1 H        0.925     0.073     2.056     2.242
    43   1 H        0.925     0.080     1.979     2.200
    44   1 H        0.925     0.082     1.961     2.190
    45   1 H        0.925     0.075     2.031     2.229
    46   1 H        0.925     0.053     2.284     2.363
    47   1 H        0.803     0.434     0.427     1.026

 Mol. C6AA /au·bohr⁶  :      31559.318563
 Mol. C8AA /au·bohr⁸  :     828112.053972
 Mol. α(0) /au        :        273.521375


Wiberg/Mayer (AO) data.
largest (>0.10) Wiberg bond orders for each atom

 ---------------------------------------------------------------------------
     #   Z sym  total        # sym  WBO       # sym  WBO       # sym  WBO
 ---------------------------------------------------------------------------
     1   6 C    3.974 --     2 C    1.037    32 H    0.968    31 H    0.959
                            30 H    0.945
     2   6 C    3.916 --     3 C    1.480     6 O    1.169     1 C    1.037
                             5 N    0.143
     3   6 C    3.971 --     2 C    1.480     4 C    1.218    14 C    1.018
     4   6 C    3.976 --     5 N    1.569     3 C    1.218     7 C    1.037
     5   7 N    2.937 --     4 C    1.569     6 O    1.076     2 C    0.143
     6   8 O    2.451 --     2 C    1.169     5 N    1.076
     7   6 C    3.987 --     8 C    1.385    12 C    1.366     4 C    1.037
                            10 C    0.105
     8   6 C    3.985 --     9 C    1.448     7 C    1.385    33 H    0.966
                            11 C    0.107
     9   6 C    3.988 --     8 C    1.448    10 C    1.433    34 H    0.965
    10   6 C    3.985 --    11 C    1.434     9 C    1.433    35 H    0.966
                             7 C    0.105
    11   6 C    3.985 --    10 C    1.434    12 C    1.417    36 H    0.965
                             8 C    0.107
    12   6 C    3.903 --    11 C    1.417     7 C    1.366    13 Cl   0.946
    13  17 Cl   1.080 --    12 C    0.946
    14   6 C    3.945 --    15 O    1.619    16 N    1.236     3 C    1.018
    15   8 O    1.948 --    14 C    1.619    16 N    0.182
    16   7 N    3.458 --    14 C    1.236    17 C    1.018    37 H    0.913
                            15 O    0.182
    17   6 C    3.968 --    16 N    1.018    18 C    0.948    38 H    0.943
                            20 C    0.913
    18   6 C    3.951 --    19 N    0.988    24 S    0.965    39 H    0.962
                            17 C    0.948
    19   7 N    3.472 --    20 C    1.209    18 C    0.988    22 C    0.979
                            21 O    0.195
    20   6 C    3.939 --    21 O    1.712    19 N    1.209    17 C    0.913
    21   8 O    2.044 --    20 C    1.712    19 N    0.195
    22   6 C    3.963 --    19 N    0.979    40 H    0.945    27 C    0.943
                            23 C    0.932
    23   6 C    3.960 --    26 C    1.009    25 C    1.008    22 C    0.932
                            24 S    0.932
    24  16 S    2.076 --    18 C    0.965    23 C    0.932
    25   6 C    3.988 --    23 C    1.008    41 H    0.982    43 H    0.977
                            42 H    0.974
    26   6 C    3.984 --    23 C    1.009    46 H    0.981    44 H    0.978
                            45 H    0.973
    27   6 C    3.921 --    28 O    1.718    29 O    1.209    22 C    0.943
    28   8 O    2.000 --    27 C    1.718    29 O    0.186
    29   8 O    2.211 --    27 C    1.209    47 H    0.786    28 O    0.186
    30   1 H    0.989 --     1 C    0.945
    31   1 H    0.990 --     1 C    0.959
    32   1 H    0.988 --     1 C    0.968
    33   1 H    0.995 --     8 C    0.966
    34   1 H    0.993 --     9 C    0.965
    35   1 H    0.994 --    10 C    0.966
    36   1 H    0.994 --    11 C    0.965
    37   1 H    0.951 --    16 N    0.913
    38   1 H    0.991 --    17 C    0.943
    39   1 H    0.994 --    18 C    0.962
    40   1 H    0.990 --    22 C    0.945
    41   1 H    0.998 --    25 C    0.982
    42   1 H    0.995 --    25 C    0.974
    43   1 H    0.993 --    25 C    0.977
    44   1 H    0.992 --    26 C    0.978
    45   1 H    0.994 --    26 C    0.973
    46   1 H    0.997 --    26 C    0.981
    47   1 H    0.811 --    29 O    0.786
 ---------------------------------------------------------------------------

Topologies differ in total number of bonds
Writing topology from bond orders to xtbtopo.mol

molecular dipole:
                 x           y           z       tot (Debye)
 q only:       -2.858       1.739       0.506
   full:       -3.475       0.999       0.350       9.233
molecular quadrupole (traceless):
                xx          xy          yy          xz          yz          zz
 q only:       53.071      -9.534     -17.832      10.247      -2.477     -35.239
  q+dip:       45.666      -8.695     -14.419      10.389      -2.001     -31.247
   full:       45.383      -8.389     -15.071      10.010      -2.536     -30.312

           -------------------------------------------------
          |               Frequency Printout                |
           -------------------------------------------------
 projected vibrational frequencies (cm⁻¹)
eigval :       -0.00    -0.00     0.00     0.00     0.00     0.00
eigval :        1.69    19.30    21.91    32.24    37.73    54.78
eigval :       63.66    68.95    83.34    94.92   101.59   116.07
eigval :      134.77   138.43   156.32   184.26   205.53   207.08
eigval :      219.59   234.59   241.01   243.83   257.65   271.42
eigval :      276.27   304.61   307.72   314.45   339.20   348.17
eigval :      363.66   383.37   412.38   428.86   436.77   445.81
eigval :      453.78   463.18   505.25   513.77   539.81   579.21
eigval :      581.79   607.18   615.55   624.28   649.68   652.85
eigval :      670.00   678.00   688.64   709.14   726.04   736.07
eigval :      747.07   758.17   780.77   824.72   865.88   877.52
eigval :      899.47   912.28   922.41   927.66   949.67   961.60
eigval :      970.66   973.54   977.14   983.54  1012.49  1019.17
eigval :     1031.00  1051.41  1087.33  1098.19  1107.16  1114.03
eigval :     1118.14  1137.62  1143.79  1149.39  1158.54  1165.86
eigval :     1169.00  1172.85  1194.44  1202.85  1203.96  1214.43
eigval :     1227.58  1231.96  1239.84  1284.71  1291.92  1311.97
eigval :     1346.69  1375.20  1385.50  1396.32  1407.96  1412.57
eigval :     1414.17  1435.23  1442.53  1442.72  1464.39  1478.03
eigval :     1480.67  1491.67  1530.55  1564.12  1572.13  1590.40
eigval :     1650.60  1726.39  1787.92  2967.63  2979.89  2982.27
eigval :     3004.69  3018.79  3034.54  3036.74  3037.37  3037.86
eigval :     3052.03  3056.87  3061.45  3099.89  3104.54  3110.96
eigval :     3116.92  3304.03  3434.91
 reduced masses (amu)
   1: 14.95   2: 13.61   3: 15.82   4: 16.61   5: 15.84   6: 15.55   7: 13.56   8: 16.56
   9: 19.67  10: 15.48  11: 16.75  12: 16.89  13: 15.04  14: 14.68  15: 14.89  16: 14.19
  17: 15.12  18: 17.43  19: 16.85  20: 17.77  21: 14.76  22:  3.55  23: 13.48  24: 11.94
  25: 13.53  26: 12.58  27:  2.17  28: 14.71  29: 12.14  30:  6.12  31: 12.52  32: 12.40
  33: 12.22  34: 14.51  35: 12.61  36: 14.49  37: 13.41  38: 12.05  39: 17.62  40: 12.40
  41: 13.33  42: 10.03  43:  8.87  44: 15.56  45: 12.89  46: 11.66  47: 11.42  48: 12.91
  49: 12.73  50: 11.40  51: 11.93  52: 11.60  53:  7.28  54: 11.21  55: 12.77  56: 12.15
  57: 12.34  58: 10.08  59: 12.27  60: 12.36  61: 12.35  62: 12.48  63:  3.80  64: 12.81
  65:  9.69  66:  3.35  67: 10.49  68:  4.02  69:  3.37  70:  9.22  71: 12.60  72:  6.00
  73:  5.41  74:  6.74  75:  9.21  76:  8.60  77:  4.04  78:  5.24  79: 11.54  80: 13.47
  81:  6.44  82:  7.50  83:  7.68  84:  9.97  85:  5.46  86:  6.78  87:  6.03  88:  7.19
  89:  5.51  90:  6.07  91:  5.34  92:  1.61  93:  6.25  94:  8.94  95:  7.98  96:  9.65
  97:  8.50  98:  4.29  99:  8.66 100:  9.12 101:  9.49 102: 11.95 103: 12.73 104:  6.12
 105:  8.17 106:  3.23 107:  6.75 108:  7.28 109:  7.77 110:  4.72 111:  2.54 112:  6.82
 113:  1.57 114:  1.58 115:  1.60 116:  1.57 117: 12.05 118: 11.61 119: 11.94 120: 11.68
 121: 13.26 122: 13.35 123: 13.25 124:  1.76 125:  1.77 126:  1.79 127:  1.79 128:  1.82
 129:  1.82 130:  1.63 131:  1.76 132:  1.68 133:  1.64 134:  1.61 135:  1.75 136:  1.76
 137:  1.81 138:  1.87 139:  1.92 140:  1.85 141:  1.85
 IR intensities (km·mol⁻¹)
   1:  0.11   2:  0.38   3:  0.11   4:  0.45   5:  0.05   6:  0.13   7:  0.36   8:  1.56
   9:  1.84  10:  0.74  11:  3.11  12:  3.35  13:  7.07  14:  3.63  15:  3.48  16:  7.81
  17:  7.77  18:  9.13  19:  6.39  20:  8.67  21:  4.97  22:  2.01  23:  5.23  24:  5.45
  25: 10.24  26:  4.92  27:  0.10  28:  2.15  29:  7.21  30:  0.20  31:  1.13  32:  5.00
  33:  0.58  34:  4.62  35: 23.69  36:  2.75  37:  3.32  38:  1.36  39:  5.73  40: 15.45
  41: 14.57  42: 28.93  43: 48.13  44:  3.72  45: 30.98  46:  1.36  47:  7.62  48: 44.02
  49: 45.78  50: 68.16  51: 15.56  52: 10.09  53:114.12  54: 12.30  55:  9.76  56:  2.97
  57:  6.17  58:169.71  59: 15.86  60:  4.52  61:  8.24  62: 36.21  63: 38.20  64: 29.21
  65:  2.29  66:  0.90  67: 33.74  68:  0.53  69:  0.21  70:  4.51  71: 28.89  72:  1.01
  73:  2.95  74: 45.28  75:  6.68  76: 74.94  77:  3.55  78: 21.62  79: 44.73  80: 58.20
  81:  0.23  82:136.34  83:174.18  84: 20.76  85: 25.81  86: 49.47  87: 30.53  88: 30.68
  89:  4.22  90: 42.06  91: 17.67  92:  1.13  93: 10.85  94:116.00  95: 33.94  96:116.88
  97: 45.25  98: 13.73  99:147.73 100:333.27 101:  5.11 102:  0.11 103: 72.52 104: 47.31
 105: 43.87 106:  6.81 107:352.42 108: 24.44 109:368.57 110: 13.55 111: 20.56 112: 20.28
 113:  5.74 114:  6.92 115:  3.30 116:  6.52 117:  3.42 118: 42.89 119:153.71 120: 13.26
 121:789.28 122:690.84 123:****** 124:  5.26 125:  1.39 126: 12.94 127:  2.81 128: 34.76
 129:  2.85 130:  1.00 131: 35.60 132: 31.59 133:  5.59 134: 14.15 135:  0.63 136:  1.35
 137: 12.43 138: 41.54 139: 30.67 140:241.60 141: 71.04
 Raman intensities (amu)
   1:  0.00   2:  0.00   3:  0.00   4:  0.00   5:  0.00   6:  0.00   7:  0.00   8:  0.00
   9:  0.00  10:  0.00  11:  0.00  12:  0.00  13:  0.00  14:  0.00  15:  0.00  16:  0.00
  17:  0.00  18:  0.00  19:  0.00  20:  0.00  21:  0.00  22:  0.00  23:  0.00  24:  0.00
  25:  0.00  26:  0.00  27:  0.00  28:  0.00  29:  0.00  30:  0.00  31:  0.00  32:  0.00
  33:  0.00  34:  0.00  35:  0.00  36:  0.00  37:  0.00  38:  0.00  39:  0.00  40:  0.00
  41:  0.00  42:  0.00  43:  0.00  44:  0.00  45:  0.00  46:  0.00  47:  0.00  48:  0.00
  49:  0.00  50:  0.00  51:  0.00  52:  0.00  53:  0.00  54:  0.00  55:  0.00  56:  0.00
  57:  0.00  58:  0.00  59:  0.00  60:  0.00  61:  0.00  62:  0.00  63:  0.00  64:  0.00
Molecule has no symmetry elements
It seems to be the C1 point group
  65:  0.00  66:  0.00  67:  0.00  68:  0.00  69:  0.00  70:  0.00  71:  0.00  72:  0.00
  73:  0.00  74:  0.00  75:  0.00  76:  0.00  77:  0.00  78:  0.00  79:  0.00  80:  0.00
  81:  0.00  82:  0.00  83:  0.00  84:  0.00  85:  0.00  86:  0.00  87:  0.00  88:  0.00
  89:  0.00  90:  0.00  91:  0.00  92:  0.00  93:  0.00  94:  0.00  95:  0.00  96:  0.00
  97:  0.00  98:  0.00  99:  0.00 100:  0.00 101:  0.00 102:  0.00 103:  0.00 104:  0.00
 105:  0.00 106:  0.00 107:  0.00 108:  0.00 109:  0.00 110:  0.00 111:  0.00 112:  0.00
 113:  0.00 114:  0.00 115:  0.00 116:  0.00 117:  0.00 118:  0.00 119:  0.00 120:  0.00
 121:  0.00 122:  0.00 123:  0.00 124:  0.00 125:  0.00 126:  0.00 127:  0.00 128:  0.00
 129:  0.00 130:  0.00 131:  0.00 132:  0.00 133:  0.00 134:  0.00 135:  0.00 136:  0.00
 137:  0.00 138:  0.00 139:  0.00 140:  0.00 141:  0.00
 output can be read by thermo (or use thermo option).
 writing <g98.out> molden fake output.
 recommended (thermochemical) frequency scaling factor: 1.0
           -------------------------------------------------
          |             Thermodynamic Functions             |
           -------------------------------------------------

c1  symmetry found (for desy threshold:  0.10E+00) used in thermo

          ...................................................
          :                      SETUP                      :
          :.................................................:
          :  # frequencies                         135      :
          :  # imaginary freq.                       0      :
          :  linear?                             false      :
          :  only rotor calc.                    false      :
          :  symmetry                               c1      :
          :  rotational number                       1      :
          :  scaling factor                  1.0000000      :
          :  rotor cutoff                   50.0000000 cm⁻¹ :
          :  imag. cutoff                  -20.0000000 cm⁻¹ :
          :.................................................:

    mode    ω/cm⁻¹     T·S(HO)/kcal·mol⁻¹    T·S(FR)/kcal·mol⁻¹   T·S(vib)
   ------------------------------------------------------------------------
       1      1.69    -3.44300 (  0.00%)    -2.06004 (100.00%)    -2.06004
       2     19.30    -1.99917 (  2.17%)    -1.33854 ( 97.83%)    -1.35288
       3     21.91    -1.92398 (  3.56%)    -1.30092 ( 96.44%)    -1.32308
       4     32.24    -1.69546 ( 14.74%)    -1.18652 ( 85.26%)    -1.26153
       5     37.73    -1.60245 ( 24.49%)    -1.13991 ( 75.51%)    -1.25320
       6     54.78    -1.38250 ( 59.03%)    -1.02949 ( 40.97%)    -1.23787
       7     63.66    -1.29410 ( 72.43%)    -0.98499 ( 27.57%)    -1.20889
       8     68.95    -1.24716 ( 78.34%)    -0.96132 ( 21.66%)    -1.18525
       9     83.34    -1.13614 ( 88.53%)    -0.90519 ( 11.47%)    -1.10965
      10     94.92    -1.06024 ( 92.85%)    -0.86665 (  7.15%)    -1.04640
      11    101.59    -1.02077 ( 94.46%)    -0.84654 (  5.54%)    -1.01111
      12    116.07    -0.94357 ( 96.67%)    -0.80705 (  3.33%)    -0.93903
      13    134.77    -0.85773 ( 98.14%)    -0.76281 (  1.86%)    -0.85597
      14    138.43    -0.84242 ( 98.33%)    -0.75487 (  1.67%)    -0.84095
      15    156.32    -0.77336 ( 98.96%)    -0.71887 (  1.04%)    -0.77280
      16    184.26    -0.68123 ( 99.46%)    -0.67015 (  0.54%)    -0.68117
      17    205.53    -0.62106 ( 99.65%)    -0.63779 (  0.35%)    -0.62112
      18    207.08    -0.61694 ( 99.66%)    -0.63556 (  0.34%)    -0.61700
      19    219.59    -0.58510 ( 99.73%)    -0.61818 (  0.27%)    -0.58519
      20    234.59    -0.54964 ( 99.79%)    -0.59861 (  0.21%)    -0.54975
      21    241.01    -0.53530 ( 99.82%)    -0.59061 (  0.18%)    -0.53541
      22    243.83    -0.52914 ( 99.82%)    -0.58716 (  0.18%)    -0.52924
      23    257.65    -0.50019 ( 99.86%)    -0.57084 (  0.14%)    -0.50029
      24    271.42    -0.47321 ( 99.88%)    -0.55541 (  0.12%)    -0.47330
      25    276.27    -0.46411 ( 99.89%)    -0.55016 (  0.11%)    -0.46420
   ------------------------------------------------------------------------

   temp. (K)  partition function   enthalpy   heat capacity  entropy
                                   cal/mol     cal/K/mol   cal/K/mol   J/K/mol
 298.15  VIB  0.234E+14            15768.055     92.751    101.446
         ROT  0.203E+08              888.752      2.981     36.415
         INT  0.475E+21            16656.807     95.732    137.862
         TR   0.880E+28             1481.254      4.968     44.086
         TOT                       18138.0609   100.6997   181.9481   761.2709

       T/K    H(0)-H(T)+PV         H(T)/Eh          T*S/Eh         G(T)/Eh
   ------------------------------------------------------------------------
    298.15    0.289048E-01    0.370300E+00    0.864494E-01    0.283850E+00
   ------------------------------------------------------------------------

         :::::::::::::::::::::::::::::::::::::::::::::::::::::
         ::                  THERMODYNAMIC                  ::
         :::::::::::::::::::::::::::::::::::::::::::::::::::::
         :: total free energy         -86.530253492684 Eh   ::
         ::.................................................::
         :: total energy              -86.814103635394 Eh   ::
         :: zero point energy           0.341394717241 Eh   ::
         :: G(RRHO) w/o ZPVE           -0.057544574531 Eh   ::
         :: G(RRHO) contrib.            0.283850142710 Eh   ::
         :::::::::::::::::::::::::::::::::::::::::::::::::::::

           -------------------------------------------------
          | TOTAL ENERGY              -86.814103635394 Eh   |
          | TOTAL ENTHALPY            -86.443804078174 Eh   |
          | TOTAL FREE ENERGY         -86.530253492684 Eh   |
          | GRADIENT NORM               0.000253075980 Eh/α |
          | HOMO-LUMO GAP               3.085742750356 eV   |
           -------------------------------------------------

------------------------------------------------------------------------
 * finished run on 2024/09/05 at 11:50:54.767     
------------------------------------------------------------------------
 total:
 * wall-time:     0 d,  0 h,  0 min,  2.671 sec
 *  cpu-time:     0 d,  0 h,  0 min, 20.458 sec
 * ratio c/w:     7.660 speedup
 SCF:
 * wall-time:     0 d,  0 h,  0 min,  0.032 sec
 *  cpu-time:     0 d,  0 h,  0 min,  0.213 sec
 * ratio c/w:     6.677 speedup
 analytical hessian:
 * wall-time:     0 d,  0 h,  0 min,  2.456 sec
 *  cpu-time:     0 d,  0 h,  0 min, 18.826 sec
 * ratio c/w:     7.664 speedup

