      -----------------------------------------------------------      
     |                   =====================                   |     
     |                           x T B                           |     
     |                   =====================                   |     
     |                         S. Grimme                         |     
     |          Mulliken Center for Theoretical Chemistry        |     
     |                    University of Bonn                     |     
      -----------------------------------------------------------      

   * xtb version 6.6.0 (conda-forge) compiled by 'runner@Mac-1676020848589.local' on 2023-02-10

   xtb is free software: you can redistribute it and/or modify it under
   the terms of the GNU Lesser General Public License as published by
   the Free Software Foundation, either version 3 of the License, or
   (at your option) any later version.
   
   xtb is distributed in the hope that it will be useful,
   but WITHOUT ANY WARRANTY; without even the implied warranty of
   MERCHANTABILITY or FITNESS FOR A PARTICULAR PURPOSE.  See the
   GNU Lesser General Public License for more details.
   
   Cite this work as:
   * C. Bannwarth, E. Caldeweyher, S. Ehlert, A. Hansen, P. Pracht,
     J. Seibert, S. Spicher, S. Grimme, WIREs Comput. Mol. Sci., 2020, 11,
     e01493. DOI: 10.1002/wcms.1493
   
   for GFN2-xTB:
   * C. Bannwarth, S. Ehlert and S. Grimme., J. Chem. Theory Comput., 2019,
     15, 1652-1671. DOI: 10.1021/acs.jctc.8b01176
   for GFN1-xTB:
   * S. Grimme, C. Bannwarth, P. Shushkov, J. Chem. Theory Comput., 2017,
     13, 1989-2009. DOI: 10.1021/acs.jctc.7b00118
   for GFN0-xTB:
   * P. Pracht, E. Caldeweyher, S. Ehlert, S. Grimme, ChemRxiv, 2019, preprint.
     DOI: 10.26434/chemrxiv.8326202.v1
   for GFN-FF:
   * S. Spicher and S. Grimme, Angew. Chem. Int. Ed., 2020, 59, 15665-15673.
     DOI: 10.1002/anie.202004239
   
   for ALPB and GBSA implicit solvation:
   * S. Ehlert, M. Stahn, S. Spicher, S. Grimme, J. Chem. Theory Comput.,
     2021, 17, 4250-4261. DOI: 10.1021/acs.jctc.1c00471
   
   for DFT-D4:
   * E. Caldeweyher, C. Bannwarth and S. Grimme, J. Chem. Phys., 2017,
     147, 034112. DOI: 10.1063/1.4993215
   * E. Caldeweyher, S. Ehlert, A. Hansen, H. Neugebauer, S. Spicher,
     C. Bannwarth and S. Grimme, J. Chem. Phys., 2019, 150, 154122.
     DOI: 10.1063/1.5090222
   * E. Caldeweyher, J.-M. Mewes, S. Ehlert and S. Grimme, Phys. Chem. Chem. Phys.
     2020, 22, 8499-8512. DOI: 10.1039/D0CP00502A
   
   for sTDA-xTB:
   * S. Grimme and C. Bannwarth, J. Chem. Phys., 2016, 145, 054103.
     DOI: 10.1063/1.4959605
   
   in the mass-spec context:
   * V. Asgeirsson, C. Bauer and S. Grimme, Chem. Sci., 2017, 8, 4879.
     DOI: 10.1039/c7sc00601b
   * J. Koopman and S. Grimme, ACS Omega 2019, 4, 12, 15120-15133.
     DOI: 10.1021/acsomega.9b02011
   
   for metadynamics refer to:
   * S. Grimme, J. Chem. Theory Comput., 2019, 155, 2847-2862
     DOI: 10.1021/acs.jctc.9b00143
   
   for SPH calculations refer to:
   * S. Spicher and S. Grimme, J. Chem. Theory Comput., 2021, 17, 1701-1714
     DOI: 10.1021/acs.jctc.0c01306
   
   with help from (in alphabetical order)
   P. Atkinson, C. Bannwarth, F. Bohle, G. Brandenburg, E. Caldeweyher
   M. Checinski, S. Dohm, S. Ehlert, S. Ehrlich, I. Gerasimov, C. Hölzer
   A. Katbashev, J. Koopman, C. Lavigne, S. Lehtola, F. März, M. Müller,
   F. Musil, H. Neugebauer, J. Pisarek, C. Plett, P. Pracht, F. Pultar,
   J. Seibert, P. Shushkov, S. Spicher, M. Stahn, M. Steiner, T. Strunk,
   J. Stückrath, T. Rose, and J. Unsleber
   
 * started run on 2024/09/04 at 15:51:38.844     

           -------------------------------------------------
          |                Calculation Setup                |
           -------------------------------------------------

          program call               : xtb input_molecule.xyz --gfn2 --chrg -1 --opt --alpb acetonitrile
          coordinate file            : input_molecule.xyz
          omp threads                :                     8

   ID    Z sym.   atoms
    1    6 C      1
    2    7 N      2
    3    1 H      3

           -------------------------------------------------
          |                 G F N 2 - x T B                 |
           -------------------------------------------------

        Reference                      10.1021/acs.jctc.8b01176
      * Hamiltonian:
        H0-scaling (s, p, d)           1.850000    2.230000    2.230000
        zeta-weighting                 0.500000
      * Dispersion:
        s8                             2.700000
        a1                             0.520000
        a2                             5.000000
        s9                             5.000000
      * Repulsion:
        kExp                           1.500000    1.000000
        rExp                           1.000000
      * Coulomb:
        alpha                          2.000000
        third order                    shell-resolved
        anisotropic                    true
        a3                             3.000000
        a5                             4.000000
        cn-shift                       1.200000
        cn-exp                         4.000000
        max-rad                        5.000000

      * Solvation model:               ALPB
        Solvent                        acetonitrile
        Parameter file                 internal GFN2-xTB/ALPB
        Dielectric constant                3.7500E+01
        Reference state                gsolv [1 M gas/solution]
        Free energy shift                  5.1987E-03 Eh       3.2622E+00 kcal/mol
        Temperature                        2.9815E+02 K
        Density                            7.8600E-01 kg/L
        Solvent mass                       4.1050E+01 g/mol
        Interaction kernel             P16
        Born radius scaling (c1)           1.7214E+00
        Born radii integrator          GBOBC
        Born offset                        0.0000E+00 a0       0.0000E+00 AA
        H-bond correction              true
        Ion screening                  false
        Surface tension                    1.0000E-05 Eh       1.5569E+01 dyn/cm
        Grid points                               230 per atom
q/qsh data taken from xtbrestart
CAMM data taken from xtbrestart

          ...................................................
          :                      SETUP                      :
          :.................................................:
          :  # basis functions                   9          :
          :  # atomic orbitals                   9          :
          :  # shells                            5          :
          :  # electrons                        11          :
          :  max. iterations                   250          :
          :  Hamiltonian                  GFN2-xTB          :
          :  restarted?                       true          :
          :  GBSA solvation                   true          :
          :  PC potential                    false          :
          :  electronic temp.          300.0000000     K    :
          :  accuracy                    1.0000000          :
          :  -> integral cutoff          0.2500000E+02      :
          :  -> integral neglect         0.1000000E-07      :
          :  -> SCF convergence          0.1000000E-05 Eh   :
          :  -> wf. convergence          0.1000000E-03 e    :
          :  Broyden damping             0.4000000          :
          ...................................................

 iter      E             dE          RMSdq      gap      omega  full diag
   1     -5.7606384 -0.576064E+01  0.181E+00    0.01       0.0  T
   2     -5.7614308 -0.792388E-03  0.107E+00    0.00       1.0  T
   3     -5.7616978 -0.266982E-03  0.594E-01    0.00       1.0  T
   4     -5.7618656 -0.167806E-03  0.102E-01    0.00       1.0  T
   5     -5.7618766 -0.109300E-04  0.315E-02    0.00       1.8  T
   6     -5.7618767 -0.147056E-06  0.305E-03    0.00      18.9  T
   7     -5.7618767 -0.228125E-08  0.116E-03    0.00      49.8  T
   8     -5.7618767 -0.370424E-09  0.632E-05    0.00     913.4  T
   9     -5.7618767 -0.650147E-12  0.211E-05    0.00    2730.1  T

   *** convergence criteria satisfied after 9 iterations ***

         #    Occupation            Energy/Eh            Energy/eV
      -------------------------------------------------------------
         1        2.0000           -0.4776531             -12.9976
         2        2.0000           -0.4269603             -11.6182
         3        2.0000           -0.3015568              -8.2058
         4        2.0000           -0.3015568              -8.2058
         5        2.0000           -0.2826225              -7.6906
         6        0.5000           -0.0373969              -1.0176 (HOMO)
         7        0.5000           -0.0373969              -1.0176 (LUMO)
         8                          0.2425895               6.6012
         9                          1.2316925              33.5161
      -------------------------------------------------------------
                  HL-Gap            0.0000000 Eh            0.0000 eV
             Fermi-level           -0.0987033 Eh           -2.6859 eV

 SCC (total)                   0 d,  0 h,  0 min,  0.004 sec
 SCC setup                      ...        0 min,  0.001 sec ( 25.728%)
 Dispersion                     ...        0 min,  0.000 sec (  2.770%)
 classical contributions        ...        0 min,  0.000 sec (  1.064%)
 integral evaluation            ...        0 min,  0.000 sec (  3.630%)
 iterations                     ...        0 min,  0.002 sec ( 53.633%)
 molecular gradient             ...        0 min,  0.000 sec (  9.417%)
 printout                       ...        0 min,  0.000 sec (  3.296%)

         :::::::::::::::::::::::::::::::::::::::::::::::::::::
         ::                     SUMMARY                     ::
         :::::::::::::::::::::::::::::::::::::::::::::::::::::
         :: total energy              -5.646950269512 Eh    ::
         :: total w/o Gsasa/hb        -5.642088295578 Eh    ::
         :: gradient norm              0.267717090999 Eh/a0 ::
         :: HOMO-LUMO gap              0.000000217910 eV    ::
         ::.................................................::
         :: SCC energy                -5.761876701379 Eh    ::
         :: -> isotropic ES            0.194046324562 Eh    ::
         :: -> anisotropic ES          0.009540861212 Eh    ::
         :: -> anisotropic XC          0.007471664297 Eh    ::
         :: -> dispersion             -0.000963855574 Eh    ::
         :: -> Gsolv                  -0.104428485533 Eh    ::
         ::    -> Gelec               -0.099566511599 Eh    ::
         ::    -> Gsasa               -0.009033433792 Eh    ::
         ::    -> Ghb                 -0.001027194894 Eh    ::
         ::    -> Gshift               0.005198654751 Eh    ::
         :: repulsion energy           0.114926432840 Eh    ::
         :: add. restraining           0.000000000000 Eh    ::
         :: total charge              -1.000000000000 e     ::
         :::::::::::::::::::::::::::::::::::::::::::::::::::::

      ----------------------------------------------------------- 
     |                   =====================                   |
     |                        A N C O P T                        |
     |                   =====================                   |
     |               Approximate Normal Coordinate               |
     |                Rational Function Optimizer                |
      ----------------------------------------------------------- 

          ...................................................
          :                      SETUP                      :
          :.................................................:
          :   optimization level            normal          :
          :   max. optcycles                   200          :
          :   ANC micro-cycles                  20          :
          :   degrees of freedom                 4          :
          :.................................................:
          :   RF solver                   davidson          :
          :   write xtbopt.log                true          :
          :   linear (good luck)              true          :
          :   energy convergence         0.5000000E-05 Eh   :
          :   grad. convergence          0.1000000E-02 Eh/α :
          :   maxmium RF displ.          1.0000000          :
          :   Hlow (freq-cutoff)         0.1000000E-01      :
          :   Hmax (freq-cutoff)         5.0000000          :
          :   S6 in model hess.         20.0000000          :
          ...................................................

generating ANC from model Hessian ...
Using Lindh-Hessian (1995)
 Shifting diagonal of input Hessian by    9.7393648883074505E-003
 Lowest  eigenvalues of input Hessian
    0.000000    0.000000    0.000000    0.000000    0.000000    0.010000
    0.563854    0.615111    2.445682
 Highest eigenvalues
    0.000000    0.000000    0.010000    0.563854    0.615111    2.445682


........................................................................
.............................. CYCLE    1 ..............................
........................................................................

 iter      E             dE          RMSdq      gap      omega  full diag
   1     -5.7618767 -0.576188E+01  0.435E-06    0.00       0.0  T
   2     -5.7618767 -0.355271E-14  0.239E-06    0.00   24200.5  T
   3     -5.7618767  0.888178E-15  0.131E-06    0.00   43929.5  T
     SCC iter.                  ...        0 min,  0.000 sec
     gradient                   ...        0 min,  0.000 sec
 * total energy  :    -5.6469503 Eh     change       -0.7016610E-13 Eh
   gradient norm :     0.2677171 Eh/α   predicted     0.0000000E+00 (-100.00%)
   displ. norm   :     0.1587169 α      lambda       -0.3587101E-01
   maximum displ.:     0.1206393 α      in ANC's #3, #4, #2, ...

........................................................................
.............................. CYCLE    2 ..............................
........................................................................

 iter      E             dE          RMSdq      gap      omega  full diag
   1     -5.7279836 -0.572798E+01  0.101E+00    0.00       0.0  T
   2     -5.7280109 -0.272485E-04  0.661E-01    0.00       1.0  T
   3     -5.7279883  0.225835E-04  0.455E-01    0.00       1.0  T
   4     -5.7282583 -0.270031E-03  0.493E-02    0.00       1.2  T
   5     -5.7282595 -0.117710E-05  0.274E-03    0.00      21.0  T
   6     -5.7282595 -0.149470E-07  0.851E-04    0.00      67.8  T
   7     -5.7282595 -0.180039E-09  0.567E-05    0.00    1018.5  T
     SCC iter.                  ...        0 min,  0.001 sec
     gradient                   ...        0 min,  0.000 sec
 * total energy  :    -5.6612294 Eh     change       -0.1427916E-01 Eh
   gradient norm :     0.0261180 Eh/α   predicted    -0.1838732E-01 (  28.77%)
   displ. norm   :     0.0126407 α      lambda       -0.2898166E-03
   maximum displ.:     0.0093740 α      in ANC's #4, #3, #2, ...

........................................................................
.............................. CYCLE    3 ..............................
........................................................................

 iter      E             dE          RMSdq      gap      omega  full diag
   1     -5.7313124 -0.573131E+01  0.790E-02    0.00       0.0  T
   2     -5.7313126 -0.233481E-06  0.506E-02    0.00       1.1  T
   3     -5.7313121  0.489091E-06  0.348E-02    0.00       1.7  T
   4     -5.7313138 -0.169200E-05  0.333E-03    0.00      17.3  T
   5     -5.7313138 -0.576630E-08  0.963E-05    0.00     599.8  T
   6     -5.7313138 -0.282441E-12  0.293E-05    0.00    1968.8  T
     SCC iter.                  ...        0 min,  0.001 sec
     gradient                   ...        0 min,  0.000 sec
 * total energy  :    -5.6614132 Eh     change       -0.1837222E-03 Eh
   gradient norm :     0.0070080 Eh/α   predicted    -0.1449314E-03 ( -21.11%)
   displ. norm   :     0.0042146 α      lambda       -0.2701581E-04
   maximum displ.:     0.0034677 α      in ANC's #4, #3, #2, ...

........................................................................
.............................. CYCLE    4 ..............................
........................................................................

 iter      E             dE          RMSdq      gap      omega  full diag
   1     -5.7323248 -0.573232E+01  0.276E-02    0.00       0.0  T
   2     -5.7323248 -0.291579E-07  0.172E-02    0.00       3.4  T
   3     -5.7323247  0.802031E-07  0.121E-02    0.00       4.8  T
   4     -5.7323249 -0.211499E-06  0.104E-03    0.00      55.5  T
   5     -5.7323249 -0.475381E-09  0.194E-05    0.00    2968.7  T
   6     -5.7323249 -0.127010E-12  0.831E-06    0.00    6950.9  T
     SCC iter.                  ...        0 min,  0.001 sec
     gradient                   ...        0 min,  0.000 sec
 * total energy  :    -5.6614262 Eh     change       -0.1309820E-04 Eh
   gradient norm :     0.0002357 Eh/α   predicted    -0.1350872E-04 (   3.13%)
   displ. norm   :     0.0004766 α      lambda       -0.7226554E-07
   maximum displ.:     0.0004584 α      in ANC's #3, #4, #2, ...

........................................................................
.............................. CYCLE    5 ..............................
........................................................................

 iter      E             dE          RMSdq      gap      omega  full diag
   1     -5.7322411 -0.573224E+01  0.208E-03    0.00       0.0  T
   2     -5.7322411 -0.282760E-09  0.147E-03    0.00      39.2  T
   3     -5.7322411 -0.995781E-10  0.868E-04    0.00      66.5  T
   4     -5.7322411 -0.885382E-09  0.150E-04    0.00     384.5  T
     SCC iter.                  ...        0 min,  0.001 sec
     gradient                   ...        0 min,  0.000 sec
 * total energy  :    -5.6614263 Eh     change       -0.4300352E-07 Eh
   gradient norm :     0.0001273 Eh/α   predicted    -0.3483945E-07 ( -18.98%)
   displ. norm   :     0.0001231 α      lambda       -0.6159342E-08
   maximum displ.:     0.0001036 α      in ANC's #2, #4, #3, ...

   *** GEOMETRY OPTIMIZATION CONVERGED AFTER 5 ITERATIONS ***

------------------------------------------------------------------------
 total energy gain   :        -0.0144760 Eh       -9.0838 kcal/mol
 total RMSD          :         0.0822997 a0        0.0436 Å
 total power (kW/mol):        -7.6013582 (step)-5222.1724 (real)
------------------------------------------------------------------------

 ANCopt (total)                0 d,  0 h,  0 min,  0.007 sec
 optimizer setup                ...        0 min,  0.000 sec (  1.581%)
 model hessian                  ...        0 min,  0.000 sec (  0.219%)
 ANC generation                 ...        0 min,  0.000 sec (  0.812%)
 coordinate transformation      ...        0 min,  0.000 sec (  0.203%)
 single point calculation       ...        0 min,  0.006 sec ( 82.055%)
 optimization log               ...        0 min,  0.000 sec (  3.908%)
 hessian update                 ...        0 min,  0.000 sec (  0.769%)
 rational function              ...        0 min,  0.000 sec (  5.826%)

================
 final structure:
================
3
 xtb: 6.6.0 (conda-forge)
C           -0.05555747584999        0.08575713757257        0.00000000000000
N            1.16429000158574       -0.14699747096015        0.00000000000000
H           -1.10873252573575        0.28644033338758       -0.00000000000000

 Bond Distances (Angstroems)
 ---------------------------
C1-N2=1.2419         C1-H3=1.0721         N2-C1=1.2419         H3-C1=1.0721         
 C  H  Rav=1.0721 sigma=0.0000  Rmin=1.0721  Rmax=1.0721     1
 N  C  Rav=1.2419 sigma=0.0000  Rmin=1.2419  Rmax=1.2419     1

 selected bond angles (degree)
 --------------------
H3-C1-N2=179.99                

 selected dihedral angles (degree)
 ---------------------------------

           -------------------------------------------------
          |                Final Singlepoint                |
           -------------------------------------------------

          ...................................................
          :                      SETUP                      :
          :.................................................:
          :  # basis functions                   9          :
          :  # atomic orbitals                   9          :
          :  # shells                            5          :
          :  # electrons                        11          :
          :  max. iterations                   250          :
          :  Hamiltonian                  GFN2-xTB          :
          :  restarted?                      false          :
          :  GBSA solvation                   true          :
          :  PC potential                    false          :
          :  electronic temp.          300.0000000     K    :
          :  accuracy                    1.0000000          :
          :  -> integral cutoff          0.2500000E+02      :
          :  -> integral neglect         0.1000000E-07      :
          :  -> SCF convergence          0.1000000E-05 Eh   :
          :  -> wf. convergence          0.1000000E-03 e    :
          :  Broyden damping             0.4000000          :
          ...................................................

 iter      E             dE          RMSdq      gap      omega  full diag
   1     -5.7322411 -0.573224E+01  0.125E-05    0.00       0.0  T
   2     -5.7322411 -0.106581E-13  0.649E-06    0.00    8892.3  T
   3     -5.7322411  0.213163E-13  0.592E-06    0.00    9755.1  T

   *** convergence criteria satisfied after 3 iterations ***

         #    Occupation            Energy/Eh            Energy/eV
      -------------------------------------------------------------
         1        2.0000           -0.4657601             -12.6740
         2        2.0000           -0.4262150             -11.5979
         3        2.0000           -0.2902424              -7.8979
         4        2.0000           -0.2902422              -7.8979
         5        2.0000           -0.2899485              -7.8899
         6        0.5000           -0.0745677              -2.0291 (HOMO)
         7        0.5000           -0.0745677              -2.0291 (LUMO)
         8                          0.1827733               4.9735
         9                          0.8934422              24.3118
      -------------------------------------------------------------
                  HL-Gap            0.0000000 Eh            0.0000 eV
             Fermi-level           -0.1284129 Eh           -3.4943 eV

 SCC (total)                   0 d,  0 h,  0 min,  0.000 sec
 SCC setup                      ...        0 min,  0.000 sec ( 12.718%)
 Dispersion                     ...        0 min,  0.000 sec (  2.498%)
 classical contributions        ...        0 min,  0.000 sec (  1.590%)
 integral evaluation            ...        0 min,  0.000 sec ( 14.307%)
 iterations                     ...        0 min,  0.000 sec ( 32.400%)
 molecular gradient             ...        0 min,  0.000 sec ( 27.025%)
 printout                       ...        0 min,  0.000 sec (  8.251%)

         :::::::::::::::::::::::::::::::::::::::::::::::::::::
         ::                     SUMMARY                     ::
         :::::::::::::::::::::::::::::::::::::::::::::::::::::
         :: total energy              -5.661426291617 Eh    ::
         :: total w/o Gsasa/hb        -5.656589450314 Eh    ::
         :: gradient norm              0.000127614604 Eh/a0 ::
         :: HOMO-LUMO gap              0.000000054315 eV    ::
         ::.................................................::
         :: SCC energy                -5.732241058616 Eh    ::
         :: -> isotropic ES            0.192528178949 Eh    ::
         :: -> anisotropic ES          0.011974363323 Eh    ::
         :: -> anisotropic XC          0.008175987103 Eh    ::
         :: -> dispersion             -0.000931210287 Eh    ::
         :: -> Gsolv                  -0.103908311674 Eh    ::
         ::    -> Gelec               -0.099071470371 Eh    ::
         ::    -> Gsasa               -0.009186285151 Eh    ::
         ::    -> Ghb                 -0.000849210904 Eh    ::
         ::    -> Gshift               0.005198654751 Eh    ::
         :: repulsion energy           0.070814768308 Eh    ::
         :: add. restraining           0.000000000000 Eh    ::
         :: total charge              -1.000000000000 e     ::
         :::::::::::::::::::::::::::::::::::::::::::::::::::::

           -------------------------------------------------
          |                Property Printout                |
           -------------------------------------------------

    * Orbital Energies and Occupations

         #    Occupation            Energy/Eh            Energy/eV
      -------------------------------------------------------------
         1        2.0000           -0.4657601             -12.6740
         2        2.0000           -0.4262150             -11.5979
         3        2.0000           -0.2902424              -7.8979
         4        2.0000           -0.2902422              -7.8979
         5        2.0000           -0.2899485              -7.8899
         6        0.5000           -0.0745677              -2.0291 (HOMO)
         7        0.5000           -0.0745677              -2.0291 (LUMO)
         8                          0.1827733               4.9735
         9                          0.8934422              24.3118
      -------------------------------------------------------------
                  HL-Gap            0.0000000 Eh            0.0000 eV
             Fermi-level           -0.1284129 Eh           -3.4943 eV

     #   Z          covCN         q      C6AA      α(0)
     1   6 C        1.837    -0.149    35.391     9.611
     2   7 N        0.910    -0.669    39.021     9.035
     3   1 H        0.926    -0.182     9.568     4.837

 Mol. C6AA /au·bohr⁶  :        233.008760
 Mol. C8AA /au·bohr⁸  :       5180.474527
 Mol. α(0) /au        :         23.482774


Wiberg/Mayer (AO) data.
largest (>0.10) Wiberg bond orders for each atom

 ---------------------------------------------------------------------------
     #   Z sym  total        # sym  WBO       # sym  WBO       # sym  WBO
 ---------------------------------------------------------------------------
     1   6 C    3.030 --     2 N    2.103     3 H    0.927
     2   7 N    2.142 --     1 C    2.103
     3   1 H    0.967 --     1 C    0.927
 ---------------------------------------------------------------------------

Topologies differ in total number of bonds
Writing topology from bond orders to xtbtopo.mol

molecular dipole:
                 x           y           z       tot (Debye)
 q only:       -1.073       0.063      -0.000
   full:       -1.676       0.178       0.000       4.283
molecular quadrupole (traceless):
                xx          xy          yy          xz          yz          zz
 q only:       -3.985       0.927       1.911      -0.000       0.000       2.074
  q+dip:       -3.664       0.701       1.784       0.000      -0.000       1.880
   full:       -4.641       0.985       2.245       0.000       0.000       2.396

           -------------------------------------------------
          |                Geometry Summary                 |
           -------------------------------------------------

      molecular mass/u    :       27.0253799
   center of mass at/Å    :        0.5373853      -0.0273901       0.0000000
  moments of inertia/u·Å² :        0.5242342E-07   0.1291215E+02   0.1291215E+02
rotational constants/cm⁻¹ :        0.3215668E+09   0.1305563E+01   0.1305563E+01

 * 1 selected distances

     #   Z          #   Z                                           value/Å
     1   6 C        2   7 N                                       1.2418546 (max)

 * 1 distinct bonds (by element types)

   Z      Z             #   av. dist./Å        max./Å        min./Å
   6 C    7 N           1     1.2418546     1.2418546     1.2418546


optimized geometry written to: xtbopt.xyz


           -------------------------------------------------
          | TOTAL ENERGY               -5.661426291617 Eh   |
          | GRADIENT NORM               0.000127614604 Eh/α |
          | HOMO-LUMO GAP               0.000000054315 eV   |
           -------------------------------------------------

------------------------------------------------------------------------
 * finished run on 2024/09/04 at 15:51:39.034     
------------------------------------------------------------------------
 total:
 * wall-time:     0 d,  0 h,  0 min,  0.189 sec
 *  cpu-time:     0 d,  0 h,  0 min,  1.429 sec
 * ratio c/w:     7.556 speedup
 SCF:
 * wall-time:     0 d,  0 h,  0 min,  0.005 sec
 *  cpu-time:     0 d,  0 h,  0 min,  0.034 sec
 * ratio c/w:     6.959 speedup
 ANC optimizer:
 * wall-time:     0 d,  0 h,  0 min,  0.008 sec
 *  cpu-time:     0 d,  0 h,  0 min,  0.056 sec
 * ratio c/w:     6.693 speedup

