14
 energy: -1.956306329501 gnorm: 0.035584868571 xtb: 6.6.0 (conda-forge)
C           -1.92290000000000       -0.11750000000000        0.42420000000000
C           -0.46440000000000        0.12320000000000        0.80230000000000
C            0.46440000000000       -0.12320000000000       -0.39160000000000
C            1.92290000000000        0.11750000000000       -0.01350000000000
H           -2.06720000000000       -1.16780000000000        0.09210000000000
H           -2.57110000000000        0.06810000000000        1.30650000000000
H           -2.22860000000000        0.57100000000000       -0.39230000000000
H           -0.19180000000000       -0.55940000000000        1.63670000000000
H           -0.35250000000000        1.17200000000000        1.15430000000000
H            0.19180000000000        0.55940000000000       -1.22600000000000
H            0.35250000000000       -1.17200000000000       -0.74360000000000
H            2.06720000000000        1.16780000000000        0.31860000000000
H            2.22860000000000       -0.57100000000000        0.80300000000000
H            2.57110000000000       -0.06810000000000       -0.89570000000000
14
 energy: -1.958690117827 gnorm: 0.014855795654 xtb: 6.6.0 (conda-forge)
C           -1.92872029083860       -0.11694011291982        0.42817825863391
C           -0.46983591932165        0.12126598848274        0.79716885055746
C            0.46988512236444       -0.12130099024690       -0.38660745984985
C            1.92869537010158        0.11696969988425       -0.01735849943340
H           -2.07960893206283       -1.15210212059702        0.09496099582892
H           -2.58163617004952        0.06332309032128        1.29286135985128
H           -2.23826882125655        0.55714730741192       -0.38121656093896
H           -0.18890982365577       -0.54515917107582        1.62957824877633
H           -0.34688918030120        1.15687853527276        1.15538121729838
H            0.18900133111349        0.54520104939813       -1.21896497643666
H            0.34698940587448       -1.15694441745875       -0.74473739471485
H            2.07953199017846        1.15215891176715        0.31579567136727
H            2.23819958766888       -0.55717969708529        0.79200089145299
H            2.58156633018477       -0.06331807315462       -0.88204060239281
14
 energy: -1.959287253135 gnorm: 0.005809215909 xtb: 6.6.0 (conda-forge)
C           -1.93340496010410       -0.11628304458818        0.43212302334190
C           -0.47401540171991        0.11989696787385        0.79364664734219
C            0.47406845408300       -0.11993857307686       -0.38310598148987
C            1.93338093092748        0.11631867058318       -0.02127558784989
H           -2.09232615270325       -1.14113335393383        0.09560373707463
H           -2.59494129053733        0.05915047319098        1.28229938074154
H           -2.24893991701656        0.54607846094197       -0.37443854347956
H           -0.18410686413559       -0.53167428613881        1.62777948637460
H           -0.33977861817399        1.14544316447067        1.16054106342060
H            0.18421564611407        0.53175823478081       -1.21715301830171
H            0.33990192752641       -1.14553678954802       -0.74986466810942
H            2.09224259024434        1.14121076790069        0.31513801271546
H            2.24886704172482       -0.54613835594858        0.78522412917725
H            2.59483661377061       -0.05915233650787       -0.87151768095771
14
 energy: -1.959324120951 gnorm: 0.002962054327 xtb: 6.6.0 (conda-forge)
C           -1.93359175386230       -0.11606668730252        0.43296591352759
C           -0.47428089944237        0.11987099444077        0.79364228563015
C            0.47430995063625       -0.11989643190327       -0.38303366340816
C            1.93358095578688        0.11608888269324       -0.02216921543111
H           -2.09469904359631       -1.14080272799287        0.09482861046808
H           -2.59839936634288        0.05860628193894        1.28148423107646
H           -2.25117952607728        0.54499524295597       -0.37481835185265
H           -0.18269388888618       -0.52908587689903        1.62978867298782
H           -0.33804261212580        1.14453636050294        1.16352419215990
H            0.18276014638522        0.52916539069312       -1.21910676508875
H            0.33812108441547       -1.14460595843762       -0.75280065797545
H            2.09465692958949        1.14085742298828        0.31587941785317
H            2.25114524191859       -0.54504769240301        0.78556119472724
H            2.59831278160123       -0.05861520127495       -0.87074586467428
14
 energy: -1.959334853724 gnorm: 0.000242899212 xtb: 6.6.0 (conda-forge)
C           -1.93306873319407       -0.11588024182195        0.43346360017710
C           -0.47417804290887        0.11994228416195        0.79386513575618
C            0.47417897762583       -0.11994722713866       -0.38317146950737
C            1.93307107772636        0.11588483237036       -0.02273300154585
H           -2.09569084916749       -1.14103030256353        0.09403614701790
H           -2.60015771565235        0.05840876007395        1.28134427034807
H           -2.25215512214696        0.54460734143003       -0.37556631692244
H           -0.18190241388251       -0.52729908696613        1.63195660917660
H           -0.33706141389896        1.14427788892711        1.16626216372952
H            0.18191404919169        0.52735162242932       -1.22122043292750
H            0.33707963934178       -1.14430729088771       -0.75550343271927
H            2.09569496346489        1.14104937276689        0.31664730467326
H            2.25216196057217       -0.54463666247626        0.78626640067870
H            2.60011362292848       -0.05842129030536       -0.87064697793489
14
 energy: -1.959335108351 gnorm: 0.000092641768 xtb: 6.6.0 (conda-forge)
C           -1.93268106271266       -0.11585926715079        0.43341016562853
C           -0.47406859368779        0.11996239845800        0.79390211645762
C            0.47406493285120       -0.11996225933568       -0.38318786997162
C            1.93268350303246        0.11585905337857       -0.02269673580684
H           -2.09529303478544       -1.14105615733096        0.09393831226035
H           -2.59961043239228        0.05849102075025        1.28145003002687
H           -2.25176331135740        0.54464486450723       -0.37568385806316
H           -0.18207200946439       -0.52713682259247        1.63227198391164
H           -0.33721469835046        1.14427286222269        1.16662520149789
H            0.18207054541164        0.52716237307532       -1.22153791046921
H            0.33721589837091       -1.14428332396552       -0.75588139695651
H            2.09530162255100        1.14106079074610        0.31675591493395
H            2.25177215446733       -0.54465685517985        0.78638446722500
H            2.59959448606590       -0.05849867758288       -0.87075042067450
