3
 energy: -5.070544094048 gnorm: 0.000338148690 xtb: 6.6.0 (conda-forge)
O            0.00545444595971        0.37883020078238        0.00000000000000
H           -0.77557388605797       -0.17821972962024        0.00000000000000
H            0.77001944009826       -0.20061047116215        0.00000000000000
