5
 energy: -4.272643742748 gnorm: 0.028551299056 xtb: 6.6.0 (conda-forge)
C            0.00000000000000        0.00000000000000        0.00000000000000
H           -0.61820000000000        0.14130000000000        0.91030000000000
H           -0.39980000000000       -0.85000000000000       -0.59020000000000
H           -0.03000000000000        0.92330000000000       -0.61430000000000
H            1.04790000000000       -0.21450000000000        0.29430000000000
5
 energy: -4.273878225930 gnorm: 0.004150771069 xtb: 6.6.0 (conda-forge)
C           -0.00004320320608       -0.00003407336917        0.00002342644367
H           -0.60722857835145        0.13884518401730        0.89417059417650
H           -0.39269135600670       -0.83496159980013       -0.57977714279680
H           -0.02942793080750        0.90690410113984       -0.60335672943643
H            1.02929106837173       -0.21065361198785        0.28903985161307
5
 energy: -4.273902685507 gnorm: 0.000300195092 xtb: 6.6.0 (conda-forge)
C           -0.00003523805501       -0.00001475686948        0.00002366474828
H           -0.60537465512487        0.13840028785782        0.89139885336736
H           -0.39147989521162       -0.83239125478304       -0.57795978133692
H           -0.02935186495817        0.90414124044129       -0.60151265169492
H            1.02614165334968       -0.21003551664659        0.28814991491621
5
 energy: -4.273902778340 gnorm: 0.000155395321 xtb: 6.6.0 (conda-forge)
C           -0.00004127791539       -0.00001945805503        0.00002497709156
H           -0.60556086238673        0.13845029696725        0.89168289116698
H           -0.39160182509028       -0.83265365093727       -0.57815057551414
H           -0.02935459689049        0.90441459340180       -0.60169430205311
H            1.02645856228289       -0.21009178137675        0.28823700930871
