12
 energy: -15.878382954965 gnorm: 0.032097471728 xtb: 6.6.0 (conda-forge)
C           -1.37810000000000        0.23750000000000        0.04300000000000
C           -0.89450000000000       -1.07530000000000        0.03210000000000
C            0.48360000000000       -1.31280000000000       -0.01080000000000
C            1.37810000000000       -0.23750000000000       -0.04300000000000
C            0.89450000000000        1.07530000000000       -0.03210000000000
C           -0.48360000000000        1.31280000000000        0.01080000000000
H           -2.44420000000000        0.42120000000000        0.07620000000000
H           -1.58640000000000       -1.90710000000000        0.05700000000000
H            0.85770000000000       -2.32830000000000       -0.01920000000000
H            2.44420000000000       -0.42120000000000       -0.07620000000000
H            1.58640000000000        1.90710000000000       -0.05700000000000
H           -0.85770000000000        2.32830000000000        0.01920000000000
12
 energy: -15.879624388044 gnorm: 0.004476768982 xtb: 6.6.0 (conda-forge)
C           -1.36544663811084        0.23531431516947        0.04256782401867
C           -0.88628272438551       -1.06542604177216        0.03184579612045
C            0.47916755074487       -1.30074077436732       -0.01072638935165
C            1.36544663811276       -0.23531431516371       -0.04256782401913
C            0.88628272438978        1.06542604176743       -0.03184579612096
C           -0.47916755075024        1.30074077436283        0.01072638935150
H           -2.42943453857843        0.41866188116969        0.07573608042498
H           -1.57686641323241       -1.89561956654245        0.05665910450116
H            0.85254616373236       -2.31428268182859       -0.01909511276858
H            2.42943453856346       -0.41866188116055       -0.07573608042419
H            1.57686641323769        1.89561956656011       -0.05665910450100
H           -0.85254616372348        2.31428268180526        0.01909511276874
12
 energy: -15.879640570700 gnorm: 0.000241123346 xtb: 6.6.0 (conda-forge)
C           -1.36378281363627        0.23502449710871        0.04252008851962
C           -0.88519918501235       -1.06412692970726        0.03180096697439
C            0.47858641653024       -1.29915163405371       -0.01071588964881
C            1.36378281361768       -0.23502449715930       -0.04252008851865
C            0.88519918506194        1.06412692967500       -0.03180096697560
C           -0.47858641654108        1.29915163408186        0.01071588964936
H           -2.42791631646493        0.41840325396831        0.07569700319240
H           -1.57589418697956       -1.89444371804380        0.05661689031456
H            0.85202000684805       -2.31284778191575       -0.01907136650083
H            2.42791631646397       -0.41840325393929       -0.07569700319297
H            1.57589418695672        1.89444371807183       -0.05661689031403
H           -0.85202000684439        2.31284778191339        0.01907136650057
12
 energy: -15.879640652452 gnorm: 0.000045075688 xtb: 6.6.0 (conda-forge)
C           -1.36385250163524        0.23503464387376        0.04251869844065
C           -0.88524133659616       -1.06418052609368        0.03180781384590
C            0.47861170451333       -1.29921523595042       -0.01071354859171
C            1.36385250162846       -0.23503464401224       -0.04251869844037
C            0.88524133669627        1.06418052599050       -0.03180781384895
C           -0.47861170451364        1.29921523595643        0.01071354859146
H           -2.42813981533285        0.41844315354299        0.07569957653627
H           -1.57604107321656       -1.89461821909648        0.05662556206019
H            0.85209840268135       -2.31306169190016       -0.01908116915893
H            2.42813981542892       -0.41844315329676       -0.07569957654067
H            1.57604107297857        1.89461821923180       -0.05662556205214
H           -0.85209840263245        2.31306169175427        0.01908116915831
