14
 energy: -13.662020420364 gnorm: 0.044363190400 xtb: 6.6.0 (conda-forge)
C           -1.87140000000000       -0.13530000000000       -0.21150000000000
C           -0.62920000000000       -0.18620000000000        0.67310000000000
C            0.62920000000000        0.18620000000000       -0.11870000000000
C            1.87140000000000        0.13530000000000        0.76590000000000
H           -2.76560000000000       -0.40900000000000        0.38740000000000
H           -2.01510000000000        0.88920000000000       -0.61640000000000
H           -1.77490000000000       -0.85290000000000       -1.05400000000000
H           -0.76200000000000        0.52120000000000        1.52070000000000
H           -0.52280000000000       -1.21350000000000        1.08490000000000
H            0.76200000000000       -0.52120000000000       -0.96620000000000
H            0.52280000000000        1.21350000000000       -0.53050000000000
H            1.77490000000000        0.85290000000000        1.60840000000000
H            2.01510000000000       -0.88920000000000        1.17080000000000
H            2.76560000000000        0.40900000000000        0.16710000000000
14
 energy: -13.665000689463 gnorm: 0.010811470390 xtb: 6.6.0 (conda-forge)
C           -1.87997066905747       -0.13728193237360       -0.20821427851492
C           -0.63172747069738       -0.18406247025112        0.66318302695591
C            0.63173739129987        0.18405715163858       -0.10877129304102
C            1.87997294447887        0.13728888373671        0.76264069689253
H           -2.77002981335388       -0.40424076171693        0.36605240085007
H           -2.02681252997618        0.86418438554420       -0.61748722962885
H           -1.79263782404188       -0.83416781191185       -1.04408765129043
H           -0.75042729070341        0.50625090276287        1.50705474935954
H           -0.51632441109365       -1.19160367134512        1.08057898049084
H            0.75044057315897       -0.50626206620591       -0.95261054828109
H            0.51632999808744        1.19159990810195       -0.52616311425473
H            1.79261882746016        0.83416599929484        1.59852337250626
H            2.02680454641610       -0.86418230979301        1.17191033634346
H            2.77002572802243        0.40425379251839        0.18839055161242
14
 energy: -13.665120975141 gnorm: 0.001744372161 xtb: 6.6.0 (conda-forge)
C           -1.87386916554245       -0.13635202756365       -0.20854780079488
C           -0.62942536657027       -0.18465370866684        0.66684308903361
C            0.62942839674671        0.18464928432870       -0.11242186769892
C            1.87386856756503        0.13635577908798        0.76297830485376
H           -2.75731368392185       -0.40260394562665        0.36650415295983
H           -2.01880871418087        0.86224746123138       -0.61462074538307
H           -1.78523345551710       -0.83182214586326       -1.04015263883877
H           -0.74914825952024        0.50441502347944        1.50649182979953
H           -0.51559681964029       -1.18946781140760        1.08102298085123
H            0.74915598179489       -0.50442278111957       -0.95206573913001
H            0.51559769266250        1.18946137344104       -0.52660575788254
H            1.78521686843385        0.83182085921455        1.59458621255888
H            2.01881058370622       -0.86224410768384        1.16905145838902
H            2.75731737398387        0.40261674714830        0.18793652128232
14
 energy: -13.665126532791 gnorm: 0.000750236506 xtb: 6.6.0 (conda-forge)
C           -1.87650621369305       -0.13673725010760       -0.20845683192774
C           -0.63012825278176       -0.18465469834764        0.66646213702298
C            0.63012943166016        0.18465041428013       -0.11203602093921
C            1.87650455261825        0.13673983104147        0.76288731731173
H           -2.76068809557991       -0.40308045445098        0.36654251578306
H           -2.01843157882628        0.86290775025084       -0.61410361568674
H           -1.78466638807247       -0.83253018876419       -1.03997353969358
H           -0.74873591109753        0.50556026042092        1.50511095922590
H           -0.51500058593546       -1.18969769150123        1.07929630554922
H            0.74874254794176       -0.50556670980777       -0.95068279205881
H            0.51500091488658        1.18969135734434       -0.52487470088961
H            1.78465661082785        0.83253140729907        1.59440406927867
H            2.01843671038316       -0.86290489031899        1.16853206436317
H            2.76068625766870        0.40309086266163        0.18789213266096
14
 energy: -13.665127687967 gnorm: 0.000196158342 xtb: 6.6.0 (conda-forge)
C           -1.87583146891081       -0.13660315618917       -0.20862164050052
C           -0.62977993813552       -0.18478938542263        0.66719198918524
C            0.62978094395626        0.18478569297402       -0.11276490041882
C            1.87583082121984        0.13660577582691        0.76305115918919
H           -2.75988077682468       -0.40290625057616        0.36629437126732
H           -2.01855604164658        0.86284754534408       -0.61438478243887
H           -1.78481755394976       -0.83238203353131       -1.04020093378732
H           -0.74860282163294        0.50532155129881        1.50589958143405
H           -0.51488088141321       -1.18982660690299        1.08010992429903
H            0.74860692996480       -0.50532799176275       -0.95146996251808
H            0.51488025988222        1.18982127761458       -0.52568645444502
H            1.78481061459213        0.83238309136574        1.59463105388611
H            2.01856027701984       -0.86284451381099        1.16881327850626
H            2.75987963587841        0.40291500377186        0.18813731634143
