14
 energy: -1.955886134152 gnorm: 0.033565358872 xtb: 6.6.0 (conda-forge)
C           -1.59180000000000        0.47010000000000        0.02610000000000
C           -0.54970000000000       -0.29390000000000       -0.79020000000000
C            0.62990000000000       -0.78230000000000        0.06370000000000
C            1.52990000000000        0.35980000000000        0.53410000000000
H           -1.17340000000000        1.42760000000000        0.39960000000000
H           -1.93860000000000       -0.14300000000000        0.88490000000000
H           -2.46620000000000        0.70260000000000       -0.61760000000000
H           -0.18170000000000        0.34850000000000       -1.61960000000000
H           -1.04420000000000       -1.17950000000000       -1.24500000000000
H            0.25630000000000       -1.34930000000000        0.94400000000000
H            1.24230000000000       -1.47870000000000       -0.54920000000000
H            2.41830000000000       -0.05990000000000        1.05140000000000
H            0.99130000000000        1.01530000000000        1.24930000000000
H            1.87750000000000        0.96260000000000       -0.33170000000000
14
 energy: -1.957982240881 gnorm: 0.013866683536 xtb: 6.6.0 (conda-forge)
C           -1.58941895532280        0.47039255209888        0.02328331881896
C           -0.55293437044052       -0.30041123262834       -0.78734079550405
C            0.63363716187251       -0.78199873854623        0.05728069913513
C            1.52759327491642        0.35728818834082        0.53502985009616
H           -1.17249219587961        1.41146515040691        0.40340567022752
H           -1.93943684671117       -0.12742971626910        0.87489902020805
H           -2.45990349848193        0.71712507081939       -0.60004456382772
H           -0.18687442339060        0.32844032950065       -1.61549453498900
H           -1.04179667277618       -1.17587155092182       -1.24781572135731
H            0.26367698538634       -1.35229403245864        0.92512083752884
H            1.23965126812212       -1.48046735002267       -0.54467332762549
H            2.41028279310760       -0.03856526295817        1.05590519329577
H            0.99213027670168        1.01199203630699        1.23397110538780
H            1.87578520289613        0.96023455633133       -0.31372675139466
14
 energy: -1.958527744006 gnorm: 0.005808611547 xtb: 6.6.0 (conda-forge)
C           -1.58483417181019        0.47143101073420        0.02116964605808
C           -0.55651676112698       -0.30867474547230       -0.78616355923158
C            0.63792917433543       -0.78360974692694        0.04969133350825
C            1.52307407917850        0.35545242886823        0.53638781646747
H           -1.16505162205462        1.39866616978865        0.41155570025080
H           -1.94111870827056       -0.11313479551309        0.86977810552183
H           -2.45491760562840        0.73690533952700       -0.58315743387513
H           -0.19225962450711        0.30660240607118       -1.61836476035901
H           -1.04334793009241       -1.17606486412915       -1.25249810750012
H            0.27146253573042       -1.36213523447737        0.90687407524902
H            1.24146998709912       -1.48491031908286       -0.54257328178698
H            2.40292778406166       -0.01593743495066        1.06609702304867
H            0.98591411978112        1.01350754312682        1.21955157411628
H            1.87516874330401        0.96180224243629       -0.29854813146758
14
 energy: -1.958583359881 gnorm: 0.003053557515 xtb: 6.6.0 (conda-forge)
C           -1.58116945634212        0.47224087181216        0.02156311382602
C           -0.55785234389307       -0.31259643688696       -0.78661174793272
C            0.63964217861683       -0.78523370506785        0.04643338879277
C            1.51935822510040        0.35584726870813        0.53674293550316
H           -1.15584016333750        1.39491310211999        0.41814958182692
H           -1.94251852962535       -0.11034429885218        0.87001577406986
H           -2.45123356984855        0.74833285549348       -0.57860507229763
H           -0.19503717226084        0.29815638002012       -1.62329420241120
H           -1.04685755034064       -1.17897498044795       -1.25298862140907
H            0.27521741867824       -1.36922910693124        0.90129367726624
H            1.24528310211478       -1.48622131452078       -0.54440131218051
H            2.39841831265936       -0.00772581424076        1.07377588127218
H            0.97712289950671        1.01695100924931        1.21372804701415
H            1.87536664897174        0.96378416954451       -0.29600144334016
14
 energy: -1.958606495555 gnorm: 0.000678748299 xtb: 6.6.0 (conda-forge)
C           -1.57682093385873        0.47344990548501        0.02251553634424
C           -0.55929206592383       -0.31660239197800       -0.78688987069318
C            0.64146008011667       -0.78670880412284        0.04297369716315
C            1.51490687062976        0.35678932303977        0.53724327158018
H           -1.14458983032756        1.39154438140469        0.42532263576146
H           -1.94413898863552       -0.10818622171984        0.87066548605809
H           -2.44561562003748        0.76065905489699       -0.57562692169389
H           -0.19914733401968        0.28929444102597       -1.62949173761850
H           -1.05174118800988       -1.18320961335145       -1.25088031472594
H            0.28035608564716       -1.37758122269929        0.89576307178891
H            1.25043545679160       -1.48545051252203       -0.54839516701857
H            2.39193364419631       -0.00087306977037        1.08303961959783
H            0.96615858374218        1.02101298549934        1.20776206070527
H            1.87599523968901        0.96576174481203       -0.29420136724903
14
 energy: -1.958610435191 gnorm: 0.000757145872 xtb: 6.6.0 (conda-forge)
C           -1.57538649268703        0.47429673899521        0.02299813378967
C           -0.55989990058824       -0.31774187405544       -0.78654089464726
C            0.64216701779991       -0.78673784438935        0.04170124895123
C            1.51339203109794        0.35731718687046        0.53779902724625
H           -1.14110413660537        1.39122817638516        0.42630624771736
H           -1.94429299406356       -0.10690756392281        0.87108336162448
H           -2.44271462600103        0.76380651195072       -0.57597131690758
H           -0.20170206898035        0.28601423048475       -1.63174066858624
H           -1.05395113478201       -1.18535627246016       -1.24749860332913
H            0.28331129882451       -1.38074894589996        0.89351163086445
H            1.25264854829793       -1.48281420605999       -0.55168139238466
H            2.38848469419119       -0.00043616147171        1.08653262536836
H            0.96246823041049        1.02173999367282        1.20648218003422
H            1.87647953308563        0.96624002990028       -0.29318157974114
