47
 energy: -86.744144687670 gnorm: 0.245210223398 xtb: 6.6.0 (conda-forge)
C            0.12040000000000        2.84470000000000       -1.02530000000000
C            1.54760000000000        2.44890000000000       -0.83800000000000
C            2.04510000000000        1.21430000000000       -0.44970000000000
C            3.41640000000000        1.42030000000000       -0.40470000000000
N            3.69270000000000        2.68600000000000       -0.77410000000000
O            2.55620000000000        3.26930000000000       -1.02150000000000
C            4.45790000000000        0.43450000000000       -0.06730000000000
C            4.54420000000000       -0.05940000000000        1.24420000000000
C            5.54000000000000       -0.97700000000000        1.58890000000000
C            6.46230000000000       -1.40150000000000        0.63030000000000
C            6.39270000000000       -0.90720000000000       -0.67470000000000
C            5.39820000000000        0.01290000000000       -1.02940000000000
Cl           5.33810000000000        0.59260000000000       -2.69060000000000
C            1.30850000000000       -0.04430000000000       -0.20200000000000
O            1.74790000000000       -0.86080000000000        0.65130000000000
N            0.12390000000000       -0.36590000000000       -0.94610000000000
C           -0.58870000000000       -1.62770000000000       -0.72710000000000
C           -1.54130000000000       -1.60300000000000        0.36060000000000
N           -2.67280000000000       -1.74180000000000       -0.50430000000000
C           -1.74620000000000       -1.79960000000000       -1.65900000000000
O           -1.88210000000000       -1.89190000000000       -2.90680000000000
C           -3.91820000000000       -1.05930000000000       -0.27240000000000
C           -3.49550000000000        0.25020000000000        0.46900000000000
S           -1.83360000000000       -0.03030000000000        1.25480000000000
C           -3.33840000000000        1.38680000000000       -0.55670000000000
C           -4.49250000000000        0.70150000000000        1.55410000000000
C           -4.83320000000000       -1.95760000000000        0.51840000000000
O           -4.38840000000000       -2.63910000000000        1.48180000000000
O           -6.18830000000000       -2.00390000000000        0.20670000000000
H           -0.21750000000000        2.56950000000000       -2.04540000000000
H           -0.51270000000000        2.34420000000000       -0.26580000000000
H            0.01770000000000        3.94260000000000       -0.89950000000000
H            3.84500000000000        0.27300000000000        2.00190000000000
H            5.59930000000000       -1.35580000000000        2.60110000000000
H            7.23330000000000       -2.11210000000000        0.89910000000000
H            7.11240000000000       -1.24140000000000       -1.41120000000000
H           -0.13190000000000        0.22250000000000       -1.76970000000000
H            0.08250000000000       -2.51450000000000       -0.73120000000000
H           -1.45140000000000       -2.47530000000000        1.04470000000000
H           -4.40510000000000       -0.84100000000000       -1.24880000000000
H           -2.60390000000000        1.10630000000000       -1.34160000000000
H           -4.31080000000000        1.60580000000000       -1.04840000000000
H           -2.98250000000000        2.31550000000000       -0.06170000000000
H           -4.17820000000000        1.67340000000000        1.99170000000000
H           -5.50920000000000        0.82110000000000        1.12200000000000
H           -4.53630000000000       -0.03650000000000        2.38250000000000
H           -6.82350000000000       -2.58880000000000        0.73640000000000
47
 energy: -86.789124544225 gnorm: 0.104702278341 xtb: 6.6.0 (conda-forge)
C            0.11317250899268        2.85254068257717       -1.02699309075085
C            1.52173422030731        2.43073233080069       -0.84791829462387
C            2.02394037615527        1.19166298942225       -0.46900803152660
C            3.41931227211209        1.40501609170917       -0.41434808482874
N            3.69227963420061        2.65896065427245       -0.76446401532814
O            2.53668552572601        3.26296136897295       -1.00886229486019
C            4.46881727710286        0.43694398757746       -0.06538042006188
C            4.55201108159509       -0.06003874948878        1.23578461949365
C            5.53899995447305       -0.97259865173973        1.57944408742144
C            6.45604157261152       -1.39546021863100        0.62754577918297
C            6.38838627016406       -0.90725002968948       -0.66974078435869
C            5.40136082762064        0.00648205479502       -1.01292921963329
Cl           5.33027542740069        0.58811561593135       -2.66348746229317
C            1.30656404050225       -0.07086452923913       -0.21150769282598
O            1.71972024838449       -0.86682721437901        0.63234941990226
N            0.15730980811559       -0.36456436702193       -0.94268896787471
C           -0.56803522848431       -1.61186747027444       -0.73857089208802
C           -1.56321542385007       -1.60265161249361        0.38112684545076
N           -2.65964853392055       -1.74572441122507       -0.54602101426902
C           -1.76379951393933       -1.76623672841219       -1.65319125155421
O           -1.91965822593418       -1.87235541549165       -2.85052621815292
C           -3.90846098014287       -1.06972860635325       -0.28042595216531
C           -3.51535873411197        0.26023522053145        0.46095355721658
S           -1.86071004158322       -0.03708042303411        1.27095694530816
C           -3.34238156364048        1.38370560204833       -0.56408914363060
C           -4.49650153222957        0.69376207484479        1.55215532524829
C           -4.82399667102588       -1.96049374247784        0.54475674917629
O           -4.40213676410953       -2.64270108143982        1.46633444953006
O           -6.13104789599406       -1.98090685899338        0.19972186846272
H           -0.22348530961929        2.58407416738952       -2.03256412521339
H           -0.50645260665245        2.34669060587794       -0.28207284916393
H            0.02132729376788        3.93471364036220       -0.90496993503986
H            3.84610291316508        0.27030701945917        1.98453341907979
H            5.59539448506206       -1.35031310829783        2.59016894514870
H            7.22612318424061       -2.10452530243432        0.89391359695222
H            7.10384847141910       -1.23585188935236       -1.40931748804601
H           -0.10003107105382        0.21324242398611       -1.74325582206271
H            0.10695963898672       -2.48480142190833       -0.73640729276147
H           -1.47049811571007       -2.45034395233891        1.07765891872555
H           -4.40020364685744       -0.83872222148160       -1.23798495123075
H           -2.61693970418455        1.10556245695069       -1.33506810689015
H           -4.30004290858233        1.60398094571261       -1.04420817043133
H           -2.98877634903658        2.29244775207814       -0.06812336178777
H           -4.17947230885363        1.65110654105881        1.97800052419398
H           -5.49701059133151        0.81558210849461        1.12731613843108
H           -4.53720373560495       -0.03504698686060        2.36742492489911
H           -6.75119957565302       -2.56167134179450        0.72047881962994
47
 energy: -86.802814347577 gnorm: 0.036355232232 xtb: 6.6.0 (conda-forge)
C            0.10470118606305        2.85343309707929       -1.03009804953900
C            1.49900813822825        2.40180583207044       -0.85563733325178
C            2.00365212326440        1.16406488344806       -0.49081753705670
C            3.41452940659559        1.38926177218369       -0.42572945684799
N            3.68689461210069        2.63154718239879       -0.75004145491736
O            2.51479589015534        3.25314659614523       -0.99633514540566
C            4.46812630473736        0.43356618921662       -0.06777277483616
C            4.55224194450068       -0.06192443145046        1.22923090862306
C            5.53809155781181       -0.96755695871985        1.57407432254395
C            6.45369422310030       -1.39084015232709        0.62645108043294
C            6.38845316009646       -0.90596574001502       -0.66767102783759
C            5.40103154165169        0.00069021225662       -1.00350021050969
Cl           5.31910918773091        0.58627452093187       -2.64273751360263
C            1.30616670200228       -0.10527477819726       -0.21075492956292
O            1.70848520118085       -0.89157035424995        0.62946989700607
N            0.18777983674885       -0.36494313047021       -0.93647603116488
C           -0.55061577177893       -1.59363957226425       -0.74311463926347
C           -1.57506508711367       -1.59400585138171        0.40537326471856
N           -2.64067081658132       -1.73100462516512       -0.57150068657090
C           -1.78727725418530       -1.72465671400195       -1.63998741253646
O           -1.96833892396071       -1.83700356318017       -2.81490207029635
C           -3.89676907115028       -1.07238574241032       -0.28708863630324
C           -3.52388302019415        0.26581300407629        0.45410198733474
S           -1.87224723016115       -0.03720197024122        1.28600283458225
C           -3.34934941480144        1.38117808512419       -0.56964102794848
C           -4.50734669204721        0.68280907721679        1.53866293476625
C           -4.79525334130076       -1.98524967428320        0.55403031377408
O           -4.39142755853155       -2.64683970869224        1.47211511429026
O           -6.06099545560455       -1.94605049840783        0.18695421894553
H           -0.23940225802931        2.60063158526863       -2.02951738272502
H           -0.51456516394306        2.34944184300441       -0.29514751431887
H            0.03569201000119        3.92816774643943       -0.90586000399659
H            3.83894354899153        0.26817024088360        1.96842550550846
H            5.58978236090063       -1.34523184828624        2.58311823554478
H            7.22178039432553       -2.10045651830140        0.89044120318755
H            7.09714885808572       -1.23111316821726       -1.41237155499663
H           -0.07418796678826        0.21329162690831       -1.71654133013916
H            0.12456952793156       -2.45567431259505       -0.73624158932043
H           -1.49122479316893       -2.42120735747365        1.11090064782713
H           -4.40016337622826       -0.84360554964921       -1.22966316214440
H           -2.63167528536344        1.09662438851739       -1.33261589406275
H           -4.29984897754574        1.60201126552396       -1.04346731665605
H           -2.99306168843240        2.27721932277953       -0.07247336742495
H           -4.18341511068398        1.62898845341709        1.96196973618329
H           -5.50168996618193        0.80751347692030        1.12250677654199
H           -4.53897045217756       -0.04581166487545        2.34303877799662
H           -6.66713304025075       -2.51623651695440        0.70733729342858
47
 energy: -86.805293423362 gnorm: 0.014507955351 xtb: 6.6.0 (conda-forge)
C            0.09638268991771        2.84356560330373       -1.03297774926654
C            1.48691742684169        2.37532876285847       -0.85659599588329
C            1.99945518064966        1.14369200742695       -0.49589203935450
C            3.41034693815635        1.37923753859595       -0.42803040233018
N            3.67712803640686        2.62101357023296       -0.74054587407391
O            2.49691487472316        3.23972515877902       -0.99026171592746
C            4.46495734922706        0.42763143323177       -0.06939335103308
C            4.54793301166576       -0.06603444868699        1.22763707437727
C            5.53685946844308       -0.96731652934477        1.57381349340418
C            6.45489908960516       -1.38949679213064        0.62728584159918
C            6.38966989333604       -0.90705876036439       -0.66824406989523
C            5.39932830128557       -0.00315293950821       -1.00365331242917
Cl           5.30818350390951        0.58299157968612       -2.63902434048341
C            1.31687631466507       -0.13088239772877       -0.20834476348705
O            1.71496329756150       -0.91927827713090        0.63655574206952
N            0.20216698584888       -0.37029529496465       -0.93760236145655
C           -0.54321287317886       -1.58710505429832       -0.74623341191647
C           -1.56759921477876       -1.57681225978396        0.41878728858344
N           -2.62750535216625       -1.71303270584993       -0.56014219810435
C           -1.79561219421365       -1.69478804040845       -1.63427953213803
O           -1.99866422099264       -1.78732777935653       -2.81738269664926
C           -3.88290404000647       -1.06412246399942       -0.27785487732892
C           -3.52461278754548        0.27486391105854        0.45188386784630
S           -1.87267439258409       -0.02051963920624        1.28986348099975
C           -3.35456761559466        1.38152877398362       -0.57906431609381
C           -4.52015193041824        0.67459785751528        1.52892259232044
C           -4.76895943649022       -1.97057747065634        0.57959398495527
O           -4.35923889430475       -2.66982616734720        1.47457609622390
O           -6.02038918233418       -1.92245617427718        0.18549960298715
H           -0.25678493508850        2.61097334685867       -2.03576107619015
H           -0.53565283493942        2.34671541112410       -0.30308752657367
H            0.05140078341574        3.92025595981917       -0.90062716701029
H            3.82725808119739        0.26121136524185        1.96039459480794
H            5.58703630561615       -1.34286476084748        2.58298738903915
H            7.22378550014696       -2.09727884477001        0.89183020644981
H            7.09662422485135       -1.22905856340937       -1.41521510339251
H           -0.06089673811382        0.22456587801266       -1.70616902632340
H            0.13006240563605       -2.44850152588200       -0.74001612828496
H           -1.49573323976453       -2.39500581093946        1.13484632897732
H           -4.39986045390379       -0.84848652190559       -1.21588702683173
H           -2.64366890121363        1.08838064319885       -1.34636204819687
H           -4.30886828007710        1.60168642498961       -1.04755377523537
H           -2.99302105718268        2.27796166173648       -0.08630271154322
H           -4.20309484524782        1.61951238581545        1.96004399415816
H           -5.51287184071175        0.79415748839584        1.10596777167661
H           -4.55080841705381       -0.06452138871568        2.32478483519178
H           -6.62169598520154       -2.50359615035259        0.69373041176621
47
 energy: -86.806260268999 gnorm: 0.011345926700 xtb: 6.6.0 (conda-forge)
C            0.09001583410568        2.83168329024306       -1.03275287455312
C            1.47758445952724        2.35146953784072       -0.85197220850250
C            2.00081007767943        1.12759509780931       -0.49304904595807
C            3.40923436546865        1.37387959821459       -0.42604630280571
N            3.66814884246942        2.61672730192155       -0.73376651402319
O            2.48002167677113        3.22745249149193       -0.98520163617910
C            4.46353767284380        0.42249948154844       -0.06991842954862
C            4.54425439853058       -0.07165200269292        1.22727525139371
C            5.53626277967772       -0.96977155382859        1.57383316025828
C            6.45714707114551       -1.38885358828048        0.62772751608368
C            6.39075143012126       -0.90900460800819       -0.66951125551077
C            5.39733927127719       -0.00736876190369       -1.00595031644678
Cl           5.29782424635454        0.57724791915297       -2.63953069430845
C            1.32917616371239       -0.14968533957238       -0.20238351063314
O            1.73025028760612       -0.94738406394794        0.63449999505852
N            0.21620310287338       -0.37780226377655       -0.93720546367316
C           -0.53667370359178       -1.58420056267355       -0.74810772697652
C           -1.55997756265717       -1.55916824813632        0.42691613137794
N           -2.61556245650677       -1.69629258248692       -0.55076463101178
C           -1.79507831650881       -1.66770164685364       -1.63067185935454
O           -2.00965343877244       -1.71935236582211       -2.81928000680939
C           -3.87148332040339       -1.06158240320324       -0.27155035861273
C           -3.52790641156221        0.28119129519447        0.44477826297346
S           -1.87030376404094        0.00440127048084        1.28200689407102
C           -3.36396336589370        1.38510138511620       -0.58929432950813
C           -4.53356472257616        0.66933215484366        1.51636409700857
C           -4.74069925451550       -1.98725768815258        0.57684566531219
O           -4.32655422096267       -2.68407796834817        1.47340295702904
O           -5.99562965244110       -1.90638096979297        0.20533936572721
H           -0.26744298637393        2.61724985085472       -2.03980823873950
H           -0.55645362494903        2.34198634293547       -0.30858905655226
H            0.06596048945913        3.90984026774599       -0.89165336744200
H            3.81741694693462        0.25234459622475        1.95521820599244
H            5.58613882764217       -1.34378831146116        2.58336549084973
H            7.22832755366658       -2.09351870942462        0.89342231579566
H            7.09691801040226       -1.22845792714468       -1.41811796454750
H           -0.04825624225902        0.23885843039313       -1.69118825885662
H            0.12952504175120       -2.45050258617357       -0.74211491816007
H           -1.49653323521429       -2.36945247202407        1.15360838353302
H           -4.39907807350459       -0.86205825132019       -1.20760928502564
H           -2.66282038483028        1.08327675862753       -1.36438822627195
H           -4.32315958314538        1.60519057545128       -1.05116364606579
H           -2.99421181224808        2.28518159163916       -0.10681339913714
H           -4.23199091607010        1.61434425013336        1.96061158071818
H           -5.52478121073816        0.78035123467118        1.08394825051762
H           -4.56567268530504       -0.07980975273888        2.30462939152117
H           -6.59529760494945       -2.48188009476691        0.72111060999278
47
 energy: -86.806789649114 gnorm: 0.011145527706 xtb: 6.6.0 (conda-forge)
C            0.08737645984029        2.82077454300586       -1.02894838967261
C            1.47316989036661        2.33621081441336       -0.84414778225874
C            2.00678170225903        1.11819061986079       -0.48633635863903
C            3.41231323330544        1.37422590255350       -0.42099147813137
N            3.66333184266222        2.61828808663103       -0.72981646548666
O            2.46904251533063        3.22035870993498       -0.98030247944057
C            4.46596986027877        0.42094835349228       -0.06855601322787
C            4.54429803949454       -0.07626797818394        1.22805279833591
C            5.53746011908544       -0.97377235090786        1.57355783317285
C            6.45984742879819       -1.38937367836048        0.62709676395944
C            6.39186259401077       -0.91077613792012       -0.67077648306722
C            5.39732992481562       -0.00951253031759       -1.00757497160447
Cl           5.29139797565396        0.57173466680331       -2.64119819141724
C            1.34344107554757       -0.16264216169810       -0.20057020693683
O            1.74808673989988       -0.96860258364234        0.62645407108689
N            0.22956628001264       -0.38626496226301       -0.93683405363448
C           -0.53316374211911       -1.58342935635207       -0.74776918265045
C           -1.55723935786054       -1.54572097063454        0.42897209386128
N           -2.60972064767642       -1.68280994263652       -0.54894071088016
C           -1.79047281534814       -1.64808571130330       -1.62877864442682
O           -2.00559501398599       -1.66019566446111       -2.81844335213650
C           -3.86727558519470       -1.05808803388675       -0.26982068279380
C           -3.53219328008832        0.28750851193743        0.43703027771399
S           -1.86620388162038        0.02861458789412        1.26774086370041
C           -3.37844754005570        1.38779592157955       -0.60257349240166
C           -4.54440695896691        0.66780369886512        1.50552730923028
C           -4.72740766750384       -1.98047206467231        0.58975658400353
O           -4.29644536805707       -2.70055930451240        1.46182587300167
O           -5.98717030295990       -1.90134169550327        0.23644667063404
H           -0.26754980094565        2.61634453401665       -2.03910491496846
H           -0.56812838676088        2.33366144042188       -0.31029939780773
H            0.07221088796412        3.89826318898791       -0.88133635367850
H            3.81459536776198        0.24528982040144        1.95406778790252
H            5.58722772846840       -1.34877149492415        2.58284954458512
H            7.23339686442403       -2.09140142297532        0.89333470108059
H            7.09708479690461       -1.22972343935020       -1.42060710829464
H           -0.03840201980133        0.24870683070004       -1.67557126758648
H            0.12240876630609       -2.45791597954841       -0.74003739466726
H           -1.49779312706533       -2.34935733762847        1.16390862297979
H           -4.40325556524924       -0.87020727251477       -1.20445565098837
H           -2.68642151043388        1.08160096092166       -1.38532834307603
H           -4.34242371902652        1.60873364841390       -1.05588594204674
H           -3.00114928138468        2.29015059754620       -0.12899190336388
H           -4.25710990641496        1.61389118441550        1.95772294045571
H           -5.53412732501422        0.77039538817005        1.06527652916372
H           -4.57721460787223       -0.08600250539536        2.29003670368848
H           -6.57878268178479       -2.48799743137414        0.75083924672842
47
 energy: -86.807243696897 gnorm: 0.007917729217 xtb: 6.6.0 (conda-forge)
C            0.08733135429088        2.80811914965987       -1.02044533473869
C            1.47275762601054        2.32495659950506       -0.83303813539942
C            2.01762265709157        1.11141036975263       -0.47661051272390
C            3.42031780990429        1.37787025862991       -0.41373911055656
N            3.66232374457771        2.62379633321560       -0.72437569066189
O            2.46239205562439        3.21639278390401       -0.97145986962359
C            4.47366393176209        0.42243557122029       -0.06519274377568
C            4.54976703227739       -0.07993963541338        1.22978617737142
C            5.54169177552322       -0.97972364819254        1.57250690434079
C            6.46403735580387       -1.39195143126139        0.62480539586026
C            6.39435958659831       -0.91272141878155       -0.67239446711729
C            5.40080641070977       -0.00965977472211       -1.00771182232907
Cl           5.28898373314729        0.56818845405515       -2.64183130629400
C            1.36296919924815       -0.17511800454045       -0.20189761760217
O            1.77154487013939       -0.98891972332615        0.61472350238278
N            0.24671560237866       -0.39554595635706       -0.93706031095931
C           -0.53130484347401       -1.58087393886046       -0.74579619562501
C           -1.55836460715601       -1.53183112820612        0.42751061945206
N           -2.60649642233935       -1.67091967600539       -0.55332825108669
C           -1.78308745343212       -1.62658773545404       -1.62960331919484
O           -1.99328855568186       -1.60067512899005       -2.81820502143986
C           -3.86896413843865       -1.05852616636526       -0.27314056033844
C           -3.54462976307893        0.29484093743986        0.42394352630244
S           -1.86874194988906        0.05585297186755        1.24624031510301
C           -3.40322126154380        1.39198058107842       -0.62143850170816
C           -4.55759295482258        0.66883998599299        1.49338777177664
C           -4.71466820312902       -1.98589585982079        0.59655819005497
O           -4.26493296411720       -2.71319676564344        1.45184422182582
O           -5.98557193439367       -1.90310672811890        0.28030150831784
H           -0.26018643421139        2.61001002167212       -2.03361511636838
H           -0.57270872348046        2.31752213314333       -0.30869429026365
H            0.07159766049389        3.88337494775303       -0.86563856889869
H            3.81967177399093        0.23971202993618        1.95600415544516
H            5.59065612055034       -1.35890141428899        2.58048796058439
H            7.23915635944860       -2.09273805877781        0.89025530149065
H            7.09776227108053       -1.23275515203025       -1.42366713274587
H           -0.02886609973385        0.25732528935268       -1.65658088606237
H            0.10978834017402       -2.46631545911966       -0.73436746815271
H           -1.50144838180315       -2.32743699597244        1.17114876904594
H           -4.40977892988357       -0.88083971338702       -1.20713954660955
H           -2.72107344947467        1.08381007153148       -1.41210651199628
H           -4.37232069760099        1.61304679262238       -1.06333146061378
H           -3.01880568655435        2.29552791945749       -0.15613278986469
H           -4.28088348924017        1.61725287592868        1.94563473223301
H           -5.54680221833519        0.76211227988390        1.04963943370578
H           -4.58598631842443       -0.08462619082362        2.27813486262482
H           -6.56609179058712       -2.49537265314372        0.80212919483290
47
 energy: -86.807613968258 gnorm: 0.006218918878 xtb: 6.6.0 (conda-forge)
C            0.08949987135910        2.79299247554725       -1.00817394436057
C            1.47676880846337        2.31650999443257       -0.82021934742915
C            2.03122628933410        1.10562233402495       -0.46598884245575
C            3.43204247658788        1.38121405050751       -0.40643076225929
N            3.66553674782811        2.62965569305306       -0.71520469738420
O            2.46136246316736        3.21389590728850       -0.95778437300719
C            4.48604429369231        0.42521659641702       -0.06053981821898
C            4.56155144052126       -0.08156295328386        1.23265350573536
C            5.55028713979349       -0.98597197701509        1.57164062847127
C            6.47074892739756       -1.39698558648522        0.62188504015478
C            6.39998458320525       -0.91523125999678       -0.67382418917165
C            5.40854023434419       -0.00907515790639       -1.00603416767551
Cl           5.29292508593923        0.56831970262631       -2.64000278335214
C            1.38331849556446       -0.18629373959118       -0.20193996712145
O            1.80069290981986       -1.01016990402347        0.59953475745878
N            0.26562753615415       -0.40317697742127       -0.93633804862092
C           -0.53209704530363       -1.57468514888177       -0.74408037038132
C           -1.56395477723400       -1.51735185325247        0.42260297414707
N           -2.60735931945212       -1.66150513646861       -0.56261147243586
C           -1.77752031947183       -1.60258058744797       -1.63407794317837
O           -1.98157559708965       -1.54210234941594       -2.82076301038468
C           -3.87661565819712       -1.06148569544683       -0.28082797961867
C           -3.56283171959568        0.30201321867680        0.40632853674160
S           -1.87720614018527        0.08360147067991        1.22002493544664
C           -3.43843807986062        1.39539376435482       -0.64585852716271
C           -4.57216401674027        0.67335647461098        1.47900443366972
C           -4.70145177276542       -1.99409991602782        0.60502966152508
O           -4.22651624163597       -2.73072995732911        1.43819171190323
O           -5.98480501300808       -1.90664803826708        0.33427614632265
H           -0.24905857676084        2.60085159604505       -2.02518445932270
H           -0.57124862760385        2.29204656796172       -0.30471477970018
H            0.06613778451606        3.86597175206348       -0.84384903960502
H            3.83376340231636        0.23818483125441        1.96100018499884
H            5.59796097301438       -1.37081861784356        2.57764920135942
H            7.24505042026547       -2.09961022275926        0.88494972510800
H            7.10077954285689       -1.23745610517810       -1.42670638081845
H           -0.02259701329288        0.26851085239935       -1.63237029806641
H            0.09300820962605       -2.47152384941430       -0.72842752751295
H           -1.50959317789225       -2.30292122036405        1.17629555467953
H           -4.42298012422721       -0.89430617798969       -1.21333012598565
H           -2.76717778018189        1.08647725294265       -1.44481417568209
H           -4.41374611297179        1.61338271643711       -1.07412697741751
H           -3.04875251514593        2.30076627843121       -0.18943618846606
H           -4.30228562228290        1.62672860186702        1.92304346404109
H           -5.56386672070189        0.75443327491107        1.03936083324339
H           -4.58944566907757       -0.07488184482596        2.26834087125752
H           -6.54946999508793       -2.50377112989695        0.86834803053168
47