12
 energy: -15.879640652475 gnorm: 0.000045284718 xtb: 6.6.0 (conda-forge)
C           -1.36385250163524        0.23503464387376        0.04251869844065
C           -0.88524133659616       -1.06418052609368        0.03180781384590
C            0.47861170451333       -1.29921523595042       -0.01071354859171
C            1.36385250162846       -0.23503464401224       -0.04251869844037
C            0.88524133669627        1.06418052599050       -0.03180781384895
C           -0.47861170451364        1.29921523595643        0.01071354859146
H           -2.42813981533285        0.41844315354299        0.07569957653627
H           -1.57604107321656       -1.89461821909648        0.05662556206019
H            0.85209840268135       -2.31306169190016       -0.01908116915893
H            2.42813981542892       -0.41844315329676       -0.07569957654067
H            1.57604107297857        1.89461821923180       -0.05662556205214
H           -0.85209840263245        2.31306169175427        0.01908116915831
