5
 energy: -4.173397375088 gnorm: 0.034348556860 xtb: 6.6.0 (conda-forge)
C            0.00000000000000        0.00000000000000        0.00000000000000
H           -0.67950000000000        0.87280000000000       -0.08540000000000
H           -0.40860000000000       -0.84590000000000       -0.59010000000000
H            0.08560000000000       -0.29920000000000        1.06490000000000
H            1.00250000000000        0.27230000000000       -0.38940000000000
5
 energy: -4.175184667084 gnorm: 0.004927020017 xtb: 6.6.0 (conda-forge)
C           -0.00000208342946       -0.00000296858222       -0.00000852702601
H           -0.66502426960647        0.85421815552707       -0.08358351482570
H           -0.39993571284313       -0.82791795240245       -0.57753036481248
H            0.08379710174756       -0.29282201202899        1.04219008035335
H            0.98116496413149        0.26652477748658       -0.38106767368917
5
 energy: -4.175218230627 gnorm: 0.000459479195 xtb: 6.6.0 (conda-forge)
C            0.00000014868496        0.00000021008236        0.00000060474520
H           -0.66260358738690        0.85110502019577       -0.08328417997710
H           -0.39847611928852       -0.82489702978681       -0.57542777380589
H            0.08349057033327       -0.29175951224223        1.03839726815654
H            0.97758898765719        0.26555131175091       -0.37968591911875
5
 energy: -4.175218442538 gnorm: 0.000237506702 xtb: 6.6.0 (conda-forge)
C           -0.00000023417431       -0.00000033311363       -0.00000095664280
H           -0.66291283113897        0.85150365733595       -0.08332156666665
H           -0.39866445562186       -0.82528583896875       -0.57569702778508
H            0.08353034433802       -0.29189429760905        1.03888032055281
H            0.97804717659712        0.26567681235549       -0.37986076945828
