3
 energy: -5.503167151294 gnorm: 0.067087835657 xtb: 6.6.0 (conda-forge)
C           -0.03170000000000        0.00890000000000        0.00000000000000
N            1.08250000000000       -0.30340000000000        0.00000000000000
H           -1.05080000000000        0.29450000000000        0.00000000000000
3
 energy: -5.504017897554 gnorm: 0.016024712291 xtb: 6.6.0 (conda-forge)
C           -0.02422615275026        0.00680274693841       -0.00000000000000
N            1.06699061791822       -0.29905188238460        0.00000000000000
H           -1.04276446516796        0.29224913544619       -0.00000000000000
3
 energy: -5.504065989655 gnorm: 0.001170742302 xtb: 6.6.0 (conda-forge)
C           -0.02554340785153        0.00717019446402       -0.00000000000000
N            1.07017606492115       -0.29994385094167        0.00000000000000
H           -1.04463265706961        0.29277365647764       -0.00000000000000
3
 energy: -5.504066173988 gnorm: 0.000525300756 xtb: 6.6.0 (conda-forge)
C           -0.02535592969226        0.00711501037445       -0.00000000000000
N            1.06993747892635       -0.29987571948119        0.00000000000000
H           -1.04458154923410        0.29276070910674       -0.00000000000000
