3
 energy: -5.068978341260 gnorm: 0.047453513273 xtb: 6.6.0 (conda-forge)
O            0.00580000000000        0.40410000000000        0.00000000000000
H           -0.78590000000000       -0.19070000000000        0.00000000000000
H            0.78000000000000       -0.21340000000000        0.00000000000000
3
 energy: -5.070364622457 gnorm: 0.015740458227 xtb: 6.6.0 (conda-forge)
O            0.00562698410858        0.39115193121535        0.00000000000000
H           -0.77280401775974       -0.18441993526460        0.00000000000000
H            0.76707703365115       -0.20673199595076        0.00000000000000
3
 energy: -5.070533430899 gnorm: 0.002119575945 xtb: 6.6.0 (conda-forge)
O            0.00549791412402        0.38170518034216        0.00000000000000
H           -0.77101856054929       -0.17972433186539        0.00000000000000
H            0.76542064642527       -0.20198084847677        0.00000000000000
3
 energy: -5.070543036953 gnorm: 0.000671124566 xtb: 6.6.0 (conda-forge)
O            0.00547666155460        0.38031656370485        0.00000000000000
H           -0.77352361506203       -0.17899308772486        0.00000000000000
H            0.76794695350743       -0.20132347597999        0.00000000000000
3
 energy: -5.070544094048 gnorm: 0.000338154773 xtb: 6.6.0 (conda-forge)
O            0.00545444595971        0.37883020078238        0.00000000000000
H           -0.77557388605797       -0.17821972962024        0.00000000000000
H            0.77001944009826       -0.20061047116215        0.00000000000000
