14
 energy: -13.661185154922 gnorm: 0.043865579836 xtb: 6.6.0 (conda-forge)
C           -1.59180000000000        0.47010000000000        0.02610000000000
C           -0.54970000000000       -0.29390000000000       -0.79020000000000
C            0.62990000000000       -0.78230000000000        0.06370000000000
C            1.52990000000000        0.35980000000000        0.53410000000000
H           -1.17340000000000        1.42760000000000        0.39960000000000
H           -1.93860000000000       -0.14300000000000        0.88490000000000
H           -2.46620000000000        0.70260000000000       -0.61760000000000
H           -0.18170000000000        0.34850000000000       -1.61960000000000
H           -1.04420000000000       -1.17950000000000       -1.24500000000000
H            0.25630000000000       -1.34930000000000        0.94400000000000
H            1.24230000000000       -1.47870000000000       -0.54920000000000
H            2.41830000000000       -0.05990000000000        1.05140000000000
H            0.99130000000000        1.01530000000000        1.24930000000000
H            1.87750000000000        0.96260000000000       -0.33170000000000
14
 energy: -13.664017678537 gnorm: 0.010708176920 xtb: 6.6.0 (conda-forge)
C           -1.59149010144236        0.47049526048037        0.02003725737104
C           -0.55349342755743       -0.30330363925735       -0.78366860494203
C            0.63419709740713       -0.77941856714388        0.05283040013067
C            1.52997503482676        0.35436260452058        0.53671785719084
H           -1.18295288239084        1.40800923335870        0.39984273196389
H           -1.93616271392396       -0.12171289616877        0.86986697523505
H           -2.45868033427875        0.71001091777267       -0.59999289514128
H           -0.18362865687209        0.32728012194773       -1.60086935513574
H           -1.03745679704414       -1.17614429470426       -1.24049079692532
H            0.25906299591762       -1.33964591894272        0.91751904734725
H            1.23496596488905       -1.47401011530669       -0.54833096326071
H            2.40884889363324       -0.04167249113171        1.05107832266364
H            1.00276546619981        1.00932945208475        1.23180375398838
H            1.87394946063595        0.95632033249058       -0.30654373048567
14
 energy: -13.664155800474 gnorm: 0.001849675331 xtb: 6.6.0 (conda-forge)
C           -1.58593504947259        0.47038755019857        0.02272815883060
C           -0.55151428659868       -0.30191177593773       -0.78509267218111
C            0.63216320717045       -0.78041011861883        0.05451285302189
C            1.52431094019631        0.35625174822788        0.53523384091251
H           -1.17275288264226        1.40138396629801        0.40057902874428
H           -1.93015356731630       -0.12130138487245        0.86806203687103
H           -2.44608407012330        0.71063932732343       -0.59784218718317
H           -0.18501258539381        0.32555620108841       -1.60121160629214
H           -1.03482425388910       -1.17348231865245       -1.23344223729864
H            0.26062945630115       -1.34043138781927        0.91615937068820
H            1.23157830955088       -1.46675342894213       -0.54871349976163
H            2.39615003705197       -0.04073945467535        1.05000068510559
H            0.99327879882921        1.00653183190787        1.22471843197527
H            1.86806594633608        0.95417924447402       -0.30589220343267
14
 energy: -13.664170070441 gnorm: 0.000680167295 xtb: 6.6.0 (conda-forge)
C           -1.58444103932593        0.47219556879257        0.02370084907132
C           -0.55310573428020       -0.30538715197082       -0.78579917665010
C            0.63414933608357       -0.78219500803968        0.05167659345711
C            1.52257379745289        0.35767131072246        0.53642746546922
H           -1.16460647091072        1.40011752114576        0.40319083453795
H           -1.92924647237462       -0.12140066642782        0.86785204093906
H           -2.44399212001167        0.71798827491320       -0.59616001311977
H           -0.18615024030068        0.32126507888982       -1.60180790153011
H           -1.03881914332483       -1.17692261395174       -1.23145727753756
H            0.26224567636111       -1.34245395968063        0.91249990630569
H            1.23576849519172       -1.46578711047446       -0.55235993417573
H            2.39319466578537       -0.03669814509629        1.05600400092846
H            0.98514128704212        1.00764451185007        1.22200384080545
H            1.86718796261186        0.95386238932756       -0.30597122850100
14
 energy: -13.664174916540 gnorm: 0.000737736184 xtb: 6.6.0 (conda-forge)
C           -1.58230909155499        0.47291666284224        0.02470005115036
C           -0.55336573042410       -0.30694984801758       -0.78666370870890
C            0.63462115491149       -0.78353697575532        0.05057620524310
C            1.52032061224341        0.35864410979277        0.53657651878735
H           -1.15897971250621        1.39873161870198        0.40544799591403
H           -1.92983672987081       -0.12034065290289        0.86818725413667
H           -2.44078946783517        0.72341981482337       -0.59475938521221
H           -0.18797371649055        0.31739409289843       -1.60532667719361
H           -1.04111350453527       -1.17922478332666       -1.22860213140006
H            0.26469000807016       -1.34693780224880        0.91037468450719
H            1.23807467896748       -1.46375713479135       -0.55540498374861
H            2.38937258399835       -0.03372652865856        1.06027805094430
H            0.97954583026914        1.00864556493124        1.21948945616193
H            1.86764308475708        0.95462186171113       -0.30507333058154
