3
 energy: -5.646950269513 gnorm: 0.267717081710 xtb: 6.6.0 (conda-forge)
C           -0.03230000000000        0.08120000000000        0.00000000000000
N            1.10430000000000       -0.13550000000000        0.00000000000000
H           -1.07200000000000        0.27950000000000        0.00000000000000
3
 energy: -5.661229428205 gnorm: 0.026118049886 xtb: 6.6.0 (conda-forge)
C           -0.05948290373016        0.08641463896870        0.00000000000000
N            1.17126706325570       -0.14828436832579       -0.00000000000000
H           -1.11178415952554        0.28706972935709        0.00000000000000
3
 energy: -5.661413150397 gnorm: 0.007008023432 xtb: 6.6.0 (conda-forge)
C           -0.05670442616258        0.08590587054338        0.00000000000000
N            1.16590130768129       -0.14727128027679        0.00000000000000
H           -1.10919688151871        0.28656540973340       -0.00000000000000
3
 energy: -5.661426248599 gnorm: 0.000235892205 xtb: 6.6.0 (conda-forge)
C           -0.05558159960676        0.08572284122278        0.00000000000000
N            1.16413038934956       -0.14694845209672        0.00000000000000
H           -1.10854878974279        0.28642561087393       -0.00000000000000
3
 energy: -5.661426291603 gnorm: 0.000127619312 xtb: 6.6.0 (conda-forge)
C           -0.05555747584999        0.08575713757257        0.00000000000000
N            1.16429000158574       -0.14699747096015        0.00000000000000
H           -1.10873252573575        0.28644033338758       -0.00000000000000
