5
 energy: -4.273902778340 gnorm: 0.000155395404 xtb: 6.6.0 (conda-forge)
C           -0.00004127791539       -0.00001945805503        0.00002497709156
H           -0.60556086238673        0.13845029696725        0.89168289116698
H           -0.39160182509028       -0.83265365093727       -0.57815057551414
H           -0.02935459689049        0.90441459340180       -0.60169430205311
H            1.02645856228289       -0.21009178137675        0.28823700930871
