21
 energy: -25.391629806987 gnorm: 0.000307921577 xtb: 6.6.0 (conda-forge)
C           -1.54721215387890       -2.40149645543864       -0.31783092294265
C           -0.74795981892483       -1.15909135172634       -0.05970101661535
C           -1.36296288862757        0.08475218942364       -0.04332201413440
C           -0.63165352601574        1.24422987586838        0.17230768166790
C            0.73737283971222        1.14432728722929        0.37596370225833
C            1.37672427385135       -0.08723613362039        0.36444216558941
C            0.62275409546355       -1.23125884352428        0.14435354414238
C            2.86054790567155       -0.17787605784188        0.56207586053483
C           -1.31281106585483        2.57975465694851        0.20935824838013
H           -1.09564029551245       -3.26209263033608        0.17050192146439
H           -1.58521564634901       -2.60313002888056       -1.38916824326884
H           -2.56828842255668       -2.28735668961860        0.03918078000010
H           -2.43078365542289        0.15157533855742       -0.20037742276859
H            1.31588668238795        2.04168361662712        0.54756285014261
H            1.11159655445215       -2.19582324762710        0.13313383727325
H            3.21809911232562        0.63168985493024        1.19440716846211
H            3.36891074255543       -0.10374692523816       -0.40017989357022
H            3.13458958597770       -1.12809213516820        1.01484696004862
H           -2.19452530898808        2.58311619031214       -0.42760034437217
H           -0.63808289791770        3.36832053719051       -0.11629423136374
H           -1.63134611234885        2.80755095193296        1.22733936907191
