84
 energy: -133.594900006272 gnorm: 0.000354113172 xtb: 6.6.0 (conda-forge)
C            0.11301485225477        1.34588929650389        3.13905193271230
O            0.65893101440666        0.58388541408292        2.09032552253630
C           -0.29555987028483       -0.08355806461204        1.29047118825918
C           -0.99153698430643        0.87339924769934        0.30131837678779
C           -0.58453566209372        0.63392069689381       -1.15047495194521
C            0.92672639955183        0.48574790189367       -1.27794175898650
C            1.28609560286117        0.28565016115534       -2.76344051104554
N            2.64064055480075       -0.12799007704213       -3.04859642975121
C            3.59221933085576        0.90939148846169       -3.38264564830652
C            4.18365093993241        1.66172079305863       -2.17832953363985
C            4.72264820939662        0.62062410000258       -1.25820153154588
C            4.26871832360267       -0.66444382084513       -1.30540259182701
C            3.16723938903495       -1.17984874296321       -2.18153047253059
C            2.04962312303046       -1.77688954489546       -1.31596626259391
C            1.47153936321084       -0.67878051310389       -0.42354914505506
C            0.45539513966772       -1.23282483393700        0.60240034785564
C           -0.48503095697954       -2.29217139042244        0.06362814460404
O           -1.60572102631532       -2.14316624041060       -0.34685231098853
O            0.09744838293952       -3.49799226234197        0.14234897440229
C           -0.66533225313315       -4.60023524122222       -0.32987487570044
N            4.97114339196770       -1.43887562945320       -0.41033505654213
C            5.89061492363915       -0.65353395537227        0.22464356569399
C            5.76468765654927        0.66438177559953       -0.28401496123867
C            6.60089014823332        1.65847509402779        0.21213683375803
C            7.52944411472664        1.34007947230801        1.18050781555782
C            7.64509629661479        0.03318420811783        1.67326151559430
C            6.82147914102709       -0.97755153498748        1.19596415634066
O            8.54556106713570       -0.35266988930441        2.63198046747761
C            9.41335978124182        0.61143121232466        3.17029747692667
O           -2.39431972520457        0.67271865678782        0.43990012091424
C           -3.21567598758139        1.69745781662610        0.16424268508123
O           -2.83149871064349        2.82132525572238       -0.06407514066294
C           -4.62789863156477        1.27274430247417        0.18774043640966
C           -4.95331889372311       -0.07647412532515        0.22551476946035
C           -6.27836084535062       -0.48952799641958        0.21771411102292
C           -7.30182614602058        0.47260127867219        0.18285664244932
C           -6.95480767747722        1.84390864356029        0.13719335540232
C           -5.63037948011308        2.23706905200682        0.13539104484169
O           -8.01738139756186        2.69351308333479        0.09670301563666
C           -7.75806940207286        4.07461839510873        0.02917121813437
O           -8.64247944020549        0.25993327620973        0.17156061706106
C           -9.18924295278897       -1.02999012203584        0.31907939494378
O           -6.63236407818318       -1.81665058165436        0.23488815274668
C           -5.60629391212940       -2.77917628686943        0.29046067306173
H           -0.45995053530202        0.71286609783275        3.82800336152599
H            0.95891076239978        1.78463112167323        3.66430782913302
H           -0.54017681452191        2.14581191537346        2.77493541572640
H           -1.08331233217200       -0.50985544176789        1.93391717471705
H           -0.75298297472733        1.90927203660273        0.57700449539725
H           -1.09004301208659       -0.26476545393824       -1.50410854100637
H           -0.93283674519934        1.47495695088125       -1.75370410964637
H            1.38609200558624        1.41199440973165       -0.92117924106115
H            0.61019232146406       -0.47168300848163       -3.18125239297789
H            1.09413670941670        1.21335478814201       -3.30479810667832
H            3.10506359506451        1.60303141463300       -4.07076971262485
H            4.41581452290357        0.42331875869074       -3.91785589200706
H            4.97495885944450        2.33749642091608       -2.50883749043888
H            3.41360717946338        2.26307464740580       -1.68707402726221
H            3.57591211139900       -1.97530176446263       -2.83256419834780
H            1.28062259656022       -2.20680453988741       -1.95754186415414
H            2.45482557561505       -2.58003256793343       -0.69848859164407
H            2.29354334350831       -0.28321118961880        0.18083578724178
H            1.04271509422284       -1.73617127809753        1.37815098727485
H            0.00232677257927       -5.45782558922031       -0.32471713692457
H           -1.03314066813753       -4.40452854983213       -1.33907489704979
H           -1.51977319201786       -4.77806600289408        0.32645840788920
H            4.84420854673527       -2.42451104153945       -0.26141582268178
H            6.52623118862144        2.67147552392947       -0.15409475882959
H            8.17294638701434        2.11882234264452        1.55827384998827
H            6.92495412915830       -1.97719488740160        1.58691015790470
H            8.86453754703279        1.41454995035451        3.67378013910937
H           10.02315744580638        0.08216569460666        3.90154810249592
H           10.06570528110759        1.04296766751071        2.40348214217545
H           -4.14903476505751       -0.79113002039818        0.23987554707441
H           -5.33840233884228        3.27305783558105        0.09696070451666
H           -8.73559634042350        4.55302392270912       -0.00550313887176
H           -7.21323928205382        4.42660183001333        0.91113426675565
H           -7.19401411307001        4.33544272867633       -0.87192087708854
H           -8.87964297321284       -1.49632588677242        1.25677262698551
H          -10.26844524118831       -0.87686373609336        0.32876335800103
H           -8.92122025877653       -1.68343321227910       -0.51326943237436
H           -5.01192054827838       -2.68149686783871        1.20407537160393
H           -6.11694428367473       -3.74152045113583        0.29194884579605
H           -4.94391866929908       -2.71881433775764       -0.57778971295638
