      -----------------------------------------------------------      
     |                   =====================                   |     
     |                           x T B                           |     
     |                   =====================                   |     
     |                         S. Grimme                         |     
     |          Mulliken Center for Theoretical Chemistry        |     
     |                    University of Bonn                     |     
      -----------------------------------------------------------      

   * xtb version 6.6.0 (conda-forge) compiled by 'runner@Mac-1676020848589.local' on 2023-02-10

   xtb is free software: you can redistribute it and/or modify it under
   the terms of the GNU Lesser General Public License as published by
   the Free Software Foundation, either version 3 of the License, or
   (at your option) any later version.
   
   xtb is distributed in the hope that it will be useful,
   but WITHOUT ANY WARRANTY; without even the implied warranty of
   MERCHANTABILITY or FITNESS FOR A PARTICULAR PURPOSE.  See the
   GNU Lesser General Public License for more details.
   
   Cite this work as:
   * C. Bannwarth, E. Caldeweyher, S. Ehlert, A. Hansen, P. Pracht,
     J. Seibert, S. Spicher, S. Grimme, WIREs Comput. Mol. Sci., 2020, 11,
     e01493. DOI: 10.1002/wcms.1493
   
   for GFN2-xTB:
   * C. Bannwarth, S. Ehlert and S. Grimme., J. Chem. Theory Comput., 2019,
     15, 1652-1671. DOI: 10.1021/acs.jctc.8b01176
   for GFN1-xTB:
   * S. Grimme, C. Bannwarth, P. Shushkov, J. Chem. Theory Comput., 2017,
     13, 1989-2009. DOI: 10.1021/acs.jctc.7b00118
   for GFN0-xTB:
   * P. Pracht, E. Caldeweyher, S. Ehlert, S. Grimme, ChemRxiv, 2019, preprint.
     DOI: 10.26434/chemrxiv.8326202.v1
   for GFN-FF:
   * S. Spicher and S. Grimme, Angew. Chem. Int. Ed., 2020, 59, 15665-15673.
     DOI: 10.1002/anie.202004239
   
   for ALPB and GBSA implicit solvation:
   * S. Ehlert, M. Stahn, S. Spicher, S. Grimme, J. Chem. Theory Comput.,
     2021, 17, 4250-4261. DOI: 10.1021/acs.jctc.1c00471
   
   for DFT-D4:
   * E. Caldeweyher, C. Bannwarth and S. Grimme, J. Chem. Phys., 2017,
     147, 034112. DOI: 10.1063/1.4993215
   * E. Caldeweyher, S. Ehlert, A. Hansen, H. Neugebauer, S. Spicher,
     C. Bannwarth and S. Grimme, J. Chem. Phys., 2019, 150, 154122.
     DOI: 10.1063/1.5090222
   * E. Caldeweyher, J.-M. Mewes, S. Ehlert and S. Grimme, Phys. Chem. Chem. Phys.
     2020, 22, 8499-8512. DOI: 10.1039/D0CP00502A
   
   for sTDA-xTB:
   * S. Grimme and C. Bannwarth, J. Chem. Phys., 2016, 145, 054103.
     DOI: 10.1063/1.4959605
   
   in the mass-spec context:
   * V. Asgeirsson, C. Bauer and S. Grimme, Chem. Sci., 2017, 8, 4879.
     DOI: 10.1039/c7sc00601b
   * J. Koopman and S. Grimme, ACS Omega 2019, 4, 12, 15120-15133.
     DOI: 10.1021/acsomega.9b02011
   
   for metadynamics refer to:
   * S. Grimme, J. Chem. Theory Comput., 2019, 155, 2847-2862
     DOI: 10.1021/acs.jctc.9b00143
   
   for SPH calculations refer to:
   * S. Spicher and S. Grimme, J. Chem. Theory Comput., 2021, 17, 1701-1714
     DOI: 10.1021/acs.jctc.0c01306
   
   with help from (in alphabetical order)
   P. Atkinson, C. Bannwarth, F. Bohle, G. Brandenburg, E. Caldeweyher
   M. Checinski, S. Dohm, S. Ehlert, S. Ehrlich, I. Gerasimov, C. Hölzer
   A. Katbashev, J. Koopman, C. Lavigne, S. Lehtola, F. März, M. Müller,
   F. Musil, H. Neugebauer, J. Pisarek, C. Plett, P. Pracht, F. Pultar,
   J. Seibert, P. Shushkov, S. Spicher, M. Stahn, M. Steiner, T. Strunk,
   J. Stückrath, T. Rose, and J. Unsleber
   
 * started run on 2024/12/10 at 16:45:12.853     

           -------------------------------------------------
          |                Calculation Setup                |
           -------------------------------------------------

          program call               : xtb --chrg 0 --uhf 0 tartaric_acid.xyz --opt energy --alpb water --gfn2 Tartaric_acid.xyz
          coordinate file            : Tartaric_acid.xyz
          omp threads                :                     8

   ID    Z sym.   atoms
    1    6 C      1-3, 7
    2    8 O      4-6, 8-10
    3    1 H      11-16
########################################################################
[WARNING] Please study the warnings concerning your input carefully
-1- prog_main: Input file 'tartaric_acid.xyz' will be ignored
########################################################################

           -------------------------------------------------
          |                 G F N 2 - x T B                 |
           -------------------------------------------------

        Reference                      10.1021/acs.jctc.8b01176
      * Hamiltonian:
        H0-scaling (s, p, d)           1.850000    2.230000    2.230000
        zeta-weighting                 0.500000
      * Dispersion:
        s8                             2.700000
        a1                             0.520000
        a2                             5.000000
        s9                             5.000000
      * Repulsion:
        kExp                           1.500000    1.000000
        rExp                           1.000000
      * Coulomb:
        alpha                          2.000000
        third order                    shell-resolved
        anisotropic                    true
        a3                             3.000000
        a5                             4.000000
        cn-shift                       1.200000
        cn-exp                         4.000000
        max-rad                        5.000000

      * Solvation model:               ALPB
        Solvent                        water
        Parameter file                 internal GFN2-xTB/ALPB
        Dielectric constant                8.0200E+01
        Reference state                gsolv [1 M gas/solution]
        Free energy shift                  1.0808E-03 Eh       6.7819E-01 kcal/mol
        Temperature                        2.9815E+02 K
        Density                            1.0000E+00 kg/L
        Solvent mass                       1.8000E+01 g/mol
        Interaction kernel             P16
        Born radius scaling (c1)           1.4744E+00
        Born radii integrator          GBOBC
        Born offset                        0.0000E+00 a0       0.0000E+00 AA
        H-bond correction              true
        Ion screening                  false
        Surface tension                    1.0000E-05 Eh       1.5569E+01 dyn/cm
        Grid points                               230 per atom

          ...................................................
          :                      SETUP                      :
          :.................................................:
          :  # basis functions                  46          :
          :  # atomic orbitals                  46          :
          :  # shells                           26          :
          :  # electrons                        58          :
          :  max. iterations                   250          :
          :  Hamiltonian                  GFN2-xTB          :
          :  restarted?                      false          :
          :  GBSA solvation                   true          :
          :  PC potential                    false          :
          :  electronic temp.          300.0000000     K    :
          :  accuracy                    1.0000000          :
          :  -> integral cutoff          0.2500000E+02      :
          :  -> integral neglect         0.1000000E-07      :
          :  -> SCF convergence          0.1000000E-05 Eh   :
          :  -> wf. convergence          0.1000000E-03 e    :
          :  Broyden damping             0.4000000          :
          ...................................................

 iter      E             dE          RMSdq      gap      omega  full diag
   1    -36.1383742 -0.361384E+02  0.575E+00    4.42       0.0  T
   2    -36.2121173 -0.737431E-01  0.272E+00    3.61       1.0  T
   3    -36.2151287 -0.301142E-02  0.157E+00    3.98       1.0  T
   4    -36.2218225 -0.669377E-02  0.261E-01    3.77       1.0  T
   5    -36.2221540 -0.331519E-03  0.101E-01    3.84       1.0  T
   6    -36.2221731 -0.191475E-04  0.321E-02    3.84       1.0  T
   7    -36.2221741 -0.992791E-06  0.120E-02    3.83       2.1  T
   8    -36.2221746 -0.502239E-06  0.532E-03    3.83       4.7  T
   9    -36.2221747 -0.837312E-07  0.247E-03    3.83      10.1  T
  10    -36.2221747 -0.210511E-07  0.101E-03    3.83      24.8  T
  11    -36.2221747 -0.108072E-07  0.266E-04    3.83      93.9  T
  12    -36.2221747  0.368694E-09  0.209E-04    3.83     119.3  T

   *** convergence criteria satisfied after 12 iterations ***

         #    Occupation            Energy/Eh            Energy/eV
      -------------------------------------------------------------
         1        2.0000           -0.7456277             -20.2896
       ...           ...                  ...                  ...
        23        2.0000           -0.4875588             -13.2671
        24        2.0000           -0.4843925             -13.1810
        25        2.0000           -0.4781310             -13.0106
        26        2.0000           -0.4639824             -12.6256
        27        2.0000           -0.4615394             -12.5591
        28        2.0000           -0.4312006             -11.7336
        29        2.0000           -0.4294879             -11.6870 (HOMO)
        30                         -0.2886823              -7.8554 (LUMO)
        31                         -0.2753635              -7.4930
        32                         -0.0484437              -1.3182
        33                         -0.0437685              -1.1910
        34                          0.0150162               0.4086
       ...                                ...                  ...
        46                          0.4405863              11.9890
      -------------------------------------------------------------
                  HL-Gap            0.1408056 Eh            3.8315 eV
             Fermi-level           -0.3590851 Eh           -9.7712 eV

 SCC (total)                   0 d,  0 h,  0 min,  0.018 sec
 SCC setup                      ...        0 min,  0.002 sec ( 10.635%)
 Dispersion                     ...        0 min,  0.000 sec (  2.498%)
 classical contributions        ...        0 min,  0.000 sec (  0.165%)
 integral evaluation            ...        0 min,  0.001 sec (  5.836%)
 iterations                     ...        0 min,  0.012 sec ( 69.525%)
 molecular gradient             ...        0 min,  0.002 sec ( 10.017%)
 printout                       ...        0 min,  0.000 sec (  1.221%)

         :::::::::::::::::::::::::::::::::::::::::::::::::::::
         ::                     SUMMARY                     ::
         :::::::::::::::::::::::::::::::::::::::::::::::::::::
         :: total energy             -36.025438477586 Eh    ::
         :: total w/o Gsasa/hb       -36.001894385391 Eh    ::
         :: gradient norm              0.176277711218 Eh/a0 ::
         :: HOMO-LUMO gap              3.831515358616 eV    ::
         ::.................................................::
         :: SCC energy               -36.222174728713 Eh    ::
         :: -> isotropic ES            0.186867643920 Eh    ::
         :: -> anisotropic ES         -0.002169590981 Eh    ::
         :: -> anisotropic XC         -0.007470909796 Eh    ::
         :: -> dispersion             -0.011524307471 Eh    ::
         :: -> Gsolv                  -0.053296853760 Eh    ::
         ::    -> Gelec               -0.029752761564 Eh    ::
         ::    -> Gsasa                0.007545430688 Eh    ::
         ::    -> Ghb                 -0.032170282582 Eh    ::
         ::    -> Gshift               0.001080759698 Eh    ::
         :: repulsion energy           0.196682736543 Eh    ::
         :: add. restraining           0.000000000000 Eh    ::
         :: total charge              -0.000000000000 e     ::
         :::::::::::::::::::::::::::::::::::::::::::::::::::::

      ----------------------------------------------------------- 
     |                   =====================                   |
     |                        A N C O P T                        |
     |                   =====================                   |
     |               Approximate Normal Coordinate               |
     |                Rational Function Optimizer                |
      ----------------------------------------------------------- 

          ...................................................
          :                      SETUP                      :
          :.................................................:
          :   optimization level            normal          :
          :   max. optcycles                   200          :
          :   ANC micro-cycles                  20          :
          :   degrees of freedom                42          :
          :.................................................:
          :   RF solver                   davidson          :
          :   write xtbopt.log                true          :
          :   linear?                        false          :
          :   energy convergence         0.5000000E-05 Eh   :
          :   grad. convergence          0.1000000E-02 Eh/α :
          :   maxmium RF displ.          1.0000000          :
          :   Hlow (freq-cutoff)         0.1000000E-01      :
          :   Hmax (freq-cutoff)         5.0000000          :
          :   S6 in model hess.         20.0000000          :
          ...................................................

generating ANC from model Hessian ...
Using Lindh-Hessian (1995)
 Shifting diagonal of input Hessian by    7.9487140201140380E-003
 Lowest  eigenvalues of input Hessian
    0.000000    0.000000    0.000000    0.000000    0.000000    0.000000
    0.010000    0.011076    0.013464    0.018754    0.020249    0.022834
    0.025312    0.033160    0.041159    0.047354    0.052518    0.060440
 Highest eigenvalues
    1.428505    1.455535    1.645225    1.657059    2.016742    2.021603


........................................................................
.............................. CYCLE    1 ..............................
........................................................................

 iter      E             dE          RMSdq      gap      omega  full diag
   1    -36.2221747 -0.362222E+02  0.216E-05    3.83       0.0  T
   2    -36.2221747 -0.433431E-12  0.142E-05    3.83    1765.8  T
   3    -36.2221747 -0.390799E-12  0.325E-06    3.83    7682.4  T
     SCC iter.                  ...        0 min,  0.002 sec
     gradient                   ...        0 min,  0.001 sec
 * total energy  :   -36.0254385 Eh     change       -0.5083436E-09 Eh
   gradient norm :     0.1762811 Eh/α   predicted     0.0000000E+00 (-100.00%)
   displ. norm   :     0.3314808 α      lambda       -0.3332728E-01
   maximum displ.:     0.1594118 α      in ANC's #18, #10, #13, ...

........................................................................
.............................. CYCLE    2 ..............................
........................................................................

 iter      E             dE          RMSdq      gap      omega  full diag
   1    -36.2785086 -0.362785E+02  0.368E-01    4.30       0.0  T
   2    -36.2789628 -0.454216E-03  0.235E-01    4.19       1.0  T
   3    -36.2790095 -0.466470E-04  0.118E-01    4.21       1.0  T
   4    -36.2790316 -0.220984E-04  0.172E-02    4.18       1.5  T
   5    -36.2790324 -0.815101E-06  0.771E-03    4.19       3.2  T
   6    -36.2790326 -0.154242E-06  0.344E-03    4.19       7.3  T
   7    -36.2790326 -0.190365E-07  0.113E-03    4.19      22.2  T
   8    -36.2790326 -0.264502E-08  0.377E-04    4.19      66.3  T
   9    -36.2790326 -0.319957E-09  0.186E-04    4.19     134.3  T
     SCC iter.                  ...        0 min,  0.004 sec
     gradient                   ...        0 min,  0.001 sec
 * total energy  :   -36.0488430 Eh     change       -0.2340455E-01 Eh
   gradient norm :     0.0669753 Eh/α   predicted    -0.1849463E-01 ( -20.98%)
   displ. norm   :     0.3359178 α      lambda       -0.1146536E-01
   maximum displ.:     0.1368305 α      in ANC's #2, #18, #11, ...

........................................................................
.............................. CYCLE    3 ..............................
........................................................................

 iter      E             dE          RMSdq      gap      omega  full diag
   1    -36.3102992 -0.363103E+02  0.300E-01    4.45       0.0  T
   2    -36.3105431 -0.243819E-03  0.191E-01    4.38       1.0  T
   3    -36.3105576 -0.145030E-04  0.834E-02    4.38       1.0  T
   4    -36.3105706 -0.130376E-04  0.160E-02    4.36       1.6  T
   5    -36.3105713 -0.708906E-06  0.492E-03    4.37       5.1  T
   6    -36.3105714 -0.503735E-07  0.214E-03    4.37      11.7  T
   7    -36.3105714 -0.663107E-08  0.854E-04    4.37      29.3  T
   8    -36.3105714 -0.145263E-08  0.234E-04    4.37     107.0  T
     SCC iter.                  ...        0 min,  0.003 sec
     gradient                   ...        0 min,  0.001 sec
 * total energy  :   -36.0540499 Eh     change       -0.5206845E-02 Eh
   gradient norm :     0.0301124 Eh/α   predicted    -0.6379557E-02 (  22.52%)
   displ. norm   :     0.1782924 α      lambda       -0.1953577E-02
   maximum displ.:     0.0997987 α      in ANC's #10, #2, #1, ...

........................................................................
.............................. CYCLE    4 ..............................
........................................................................

 iter      E             dE          RMSdq      gap      omega  full diag
   1    -36.3058967 -0.363059E+02  0.168E-01    4.31       0.0  T
   2    -36.3059247 -0.279927E-04  0.982E-02    4.32       1.0  T
   3    -36.3059237  0.104930E-05  0.287E-02    4.32       1.0  T
   4    -36.3059269 -0.327104E-05  0.595E-03    4.32       4.2  T
   5    -36.3059271 -0.168773E-06  0.225E-03    4.32      11.1  T
   6    -36.3059271 -0.309183E-08  0.488E-04    4.32      51.3  T
   7    -36.3059271 -0.911541E-09  0.189E-04    4.32     132.5  T
     SCC iter.                  ...        0 min,  0.003 sec
     gradient                   ...        0 min,  0.001 sec
 * total energy  :   -36.0550961 Eh     change       -0.1046259E-02 Eh
   gradient norm :     0.0085385 Eh/α   predicted    -0.1007837E-02 (  -3.67%)
   displ. norm   :     0.2221268 α      lambda       -0.6587794E-03
   maximum displ.:     0.1689554 α      in ANC's #2, #1, #7, ...

........................................................................
.............................. CYCLE    5 ..............................
........................................................................

 iter      E             dE          RMSdq      gap      omega  full diag
   1    -36.3031342 -0.363031E+02  0.991E-02    4.29       0.0  T
   2    -36.3031414 -0.715020E-05  0.588E-02    4.30       1.0  T
   3    -36.3031407  0.709743E-06  0.175E-02    4.29       1.4  T
   4    -36.3031427 -0.202500E-05  0.310E-03    4.30       8.1  T
   5    -36.3031427 -0.951729E-08  0.165E-03    4.30      15.2  T
   6    -36.3031427 -0.325834E-08  0.447E-04    4.30      55.9  T
   7    -36.3031427 -0.447457E-09  0.133E-04    4.30     187.4  T
     SCC iter.                  ...        0 min,  0.002 sec
     gradient                   ...        0 min,  0.001 sec
 * total energy  :   -36.0556061 Eh     change       -0.5099313E-03 Eh
   gradient norm :     0.0097014 Eh/α   predicted    -0.3456399E-03 ( -32.22%)
   displ. norm   :     0.3154324 α      lambda       -0.6572221E-03
   maximum displ.:     0.2261795 α      in ANC's #2, #1, #7, ...

........................................................................
.............................. CYCLE    6 ..............................
........................................................................

 iter      E             dE          RMSdq      gap      omega  full diag
   1    -36.3023137 -0.363023E+02  0.135E-01    4.29       0.0  T
   2    -36.3023188 -0.506762E-05  0.795E-02    4.30       1.0  T
   3    -36.3023185  0.324436E-06  0.131E-02    4.30       1.9  T
   4    -36.3023201 -0.159804E-05  0.400E-03    4.30       6.2  T
   5    -36.3023201 -0.176552E-07  0.195E-03    4.30      12.8  T
   6    -36.3023201 -0.429279E-08  0.477E-04    4.30      52.5  T
   7    -36.3023201 -0.619764E-09  0.142E-04    4.30     175.9  T
     SCC iter.                  ...        0 min,  0.003 sec
     gradient                   ...        0 min,  0.001 sec
 * total energy  :   -36.0561212 Eh     change       -0.5151555E-03 Eh
   gradient norm :     0.0125574 Eh/α   predicted    -0.3613161E-03 ( -29.86%)
   displ. norm   :     0.3953167 α      lambda       -0.6750164E-03
   maximum displ.:     0.2717403 α      in ANC's #2, #1, #7, ...

........................................................................
.............................. CYCLE    7 ..............................
........................................................................

 iter      E             dE          RMSdq      gap      omega  full diag
   1    -36.3023776 -0.363024E+02  0.175E-01    4.30       0.0  T
   2    -36.3023843 -0.672831E-05  0.103E-01    4.31       1.0  T
   3    -36.3023847 -0.409216E-06  0.128E-02    4.30       1.9  T
   4    -36.3023861 -0.138270E-05  0.509E-03    4.31       4.9  T
   5    -36.3023861 -0.435627E-07  0.260E-03    4.31       9.6  T
   6    -36.3023861 -0.712705E-08  0.519E-04    4.31      48.2  T
   7    -36.3023861 -0.991847E-09  0.164E-04    4.31     152.5  T
     SCC iter.                  ...        0 min,  0.003 sec
     gradient                   ...        0 min,  0.001 sec
 * total energy  :   -36.0566125 Eh     change       -0.4913127E-03 Eh
   gradient norm :     0.0147609 Eh/α   predicted    -0.3902551E-03 ( -20.57%)
   displ. norm   :     0.3629765 α      lambda       -0.6731478E-03
   maximum displ.:     0.2179516 α      in ANC's #2, #1, #6, ...

........................................................................
.............................. CYCLE    8 ..............................
........................................................................

 iter      E             dE          RMSdq      gap      omega  full diag
   1    -36.3043099 -0.363043E+02  0.180E-01    4.32       0.0  T
   2    -36.3043151 -0.522570E-05  0.105E-01    4.32       1.0  T
   3    -36.3043161 -0.974461E-06  0.981E-03    4.32       2.5  T
   4    -36.3043167 -0.572455E-06  0.468E-03    4.32       5.3  T
   5    -36.3043167 -0.296421E-07  0.239E-03    4.32      10.5  T
   6    -36.3043167 -0.628642E-08  0.404E-04    4.32      61.8  T
   7    -36.3043167 -0.886537E-09  0.125E-04    4.32     199.8  T
     SCC iter.                  ...        0 min,  0.005 sec
     gradient                   ...        0 min,  0.001 sec
 * total energy  :   -36.0571397 Eh     change       -0.5271577E-03 Eh
   gradient norm :     0.0116391 Eh/α   predicted    -0.3809183E-03 ( -27.74%)
   displ. norm   :     0.3803744 α      lambda       -0.7435016E-03
   maximum displ.:     0.1937541 α      in ANC's #1, #2, #6, ...

........................................................................
.............................. CYCLE    9 ..............................
........................................................................

 iter      E             dE          RMSdq      gap      omega  full diag
   1    -36.3065757 -0.363066E+02  0.226E-01    4.32       0.0  T
   2    -36.3065812 -0.556160E-05  0.132E-01    4.32       1.0  T
   3    -36.3065827 -0.150592E-05  0.118E-02    4.32       2.1  T
   4    -36.3065837 -0.933023E-06  0.598E-03    4.32       4.2  T
   5    -36.3065837 -0.340709E-07  0.204E-03    4.32      12.2  T
   6    -36.3065837 -0.762498E-08  0.384E-04    4.32      65.1  T
   7    -36.3065837 -0.494495E-09  0.153E-04    4.32     163.1  T
     SCC iter.                  ...        0 min,  0.003 sec
     gradient                   ...        0 min,  0.001 sec
 * total energy  :   -36.0576781 Eh     change       -0.5383898E-03 Eh
   gradient norm :     0.0116263 Eh/α   predicted    -0.4255389E-03 ( -20.96%)
   displ. norm   :     0.4045586 α      lambda       -0.7322003E-03
   maximum displ.:     0.1786209 α      in ANC's #1, #6, #2, ...

........................................................................
.............................. CYCLE   10 ..............................
........................................................................

 iter      E             dE          RMSdq      gap      omega  full diag
   1    -36.3065221 -0.363065E+02  0.256E-01    4.32       0.0  T
   2    -36.3065398 -0.176866E-04  0.149E-01    4.32       1.0  T
   3    -36.3065421 -0.223738E-05  0.160E-02    4.32       1.6  T
   4    -36.3065431 -0.100585E-05  0.675E-03    4.32       3.7  T
   5    -36.3065432 -0.126924E-06  0.373E-03    4.32       6.7  T
   6    -36.3065432 -0.124600E-07  0.553E-04    4.32      45.2  T
   7    -36.3065432 -0.192584E-08  0.185E-04    4.32     135.4  T
     SCC iter.                  ...        0 min,  0.003 sec
     gradient                   ...        0 min,  0.001 sec
 * total energy  :   -36.0581140 Eh     change       -0.4359347E-03 Eh
   gradient norm :     0.0186168 Eh/α   predicted    -0.4260142E-03 (  -2.28%)
   displ. norm   :     0.2983707 α      lambda       -0.1072081E-02
   maximum displ.:     0.2137073 α      in ANC's #6, #4, #3, ...

........................................................................
.............................. CYCLE   11 ..............................
........................................................................

 iter      E             dE          RMSdq      gap      omega  full diag
   1    -36.3164929 -0.363165E+02  0.204E-01    4.45       0.0  T
   2    -36.3165747 -0.817626E-04  0.120E-01    4.43       1.0  T
   3    -36.3165794 -0.472722E-05  0.535E-02    4.44       1.0  T
   4    -36.3165868 -0.745305E-05  0.826E-03    4.43       3.0  T
   5    -36.3165870 -0.119049E-06  0.426E-03    4.43       5.9  T
   6    -36.3165870 -0.250526E-07  0.148E-03    4.43      16.9  T
   7    -36.3165870 -0.665280E-08  0.522E-04    4.43      47.9  T
   8    -36.3165870 -0.628631E-09  0.181E-04    4.43     138.5  T
     SCC iter.                  ...        0 min,  0.002 sec
     gradient                   ...        0 min,  0.001 sec
 * total energy  :   -36.0580051 Eh     change        0.1089168E-03 Eh
   gradient norm :     0.0312854 Eh/α   predicted    -0.5837616E-03 (-635.97%)
   displ. norm   :     0.3201240 α      lambda       -0.1574486E-02
   maximum displ.:     0.1811255 α      in ANC's #2, #4, #1, ...

........................................................................
.............................. CYCLE   12 ..............................
........................................................................

 iter      E             dE          RMSdq      gap      omega  full diag
   1    -36.3065750 -0.363066E+02  0.228E-01    4.32       0.0  T
   2    -36.3066806 -0.105550E-03  0.134E-01    4.35       1.0  T
   3    -36.3066859 -0.535821E-05  0.574E-02    4.34       1.0  T
   4    -36.3066937 -0.779894E-05  0.110E-02    4.35       2.3  T
   5    -36.3066941 -0.380316E-06  0.497E-03    4.35       5.0  T
   6    -36.3066941 -0.287232E-07  0.138E-03    4.35      18.1  T
   7    -36.3066941 -0.913673E-08  0.464E-04    4.35      53.8  T
   8    -36.3066941 -0.432621E-09  0.164E-04    4.35     152.1  T
     SCC iter.                  ...        0 min,  0.003 sec
     gradient                   ...        0 min,  0.001 sec
 * total energy  :   -36.0587251 Eh     change       -0.7199740E-03 Eh
   gradient norm :     0.0208362 Eh/α   predicted    -0.8679144E-03 (  20.55%)
   displ. norm   :     0.1697672 α      lambda       -0.7650326E-03
   maximum displ.:     0.1144313 α      in ANC's #6, #1, #2, ...

........................................................................
.............................. CYCLE   13 ..............................
........................................................................

 iter      E             dE          RMSdq      gap      omega  full diag
   1    -36.3097473 -0.363097E+02  0.129E-01    4.36       0.0  T
   2    -36.3097961 -0.488089E-04  0.721E-02    4.37       1.0  T
   3    -36.3097978 -0.168014E-05  0.317E-02    4.38       1.0  T
   4    -36.3097987 -0.897629E-06  0.835E-03    4.38       3.0  T
   5    -36.3097990 -0.319662E-06  0.260E-03    4.38       9.6  T
   6    -36.3097990 -0.975448E-08  0.710E-04    4.38      35.2  T
   7    -36.3097990 -0.117304E-08  0.382E-04    4.38      65.4  T
     SCC iter.                  ...        0 min,  0.002 sec
     gradient                   ...        0 min,  0.001 sec
 * total energy  :   -36.0586696 Eh     change        0.5542800E-04 Eh
   gradient norm :     0.0256554 Eh/α   predicted    -0.3935393E-03 (-810.00%)
   displ. norm   :     0.2106873 α      lambda       -0.9277806E-03
   maximum displ.:     0.1471414 α      in ANC's #6, #3, #4, ...

........................................................................
.............................. CYCLE   14 ..............................
........................................................................

 iter      E             dE          RMSdq      gap      omega  full diag
   1    -36.3065269 -0.363065E+02  0.159E-01    4.34       0.0  T
   2    -36.3065644 -0.375015E-04  0.952E-02    4.35       1.0  T
   3    -36.3065656 -0.116041E-05  0.383E-02    4.35       1.0  T
   4    -36.3065705 -0.490857E-05  0.601E-03    4.35       4.2  T
   5    -36.3065706 -0.437152E-07  0.332E-03    4.35       7.5  T
   6    -36.3065706 -0.112867E-07  0.790E-04    4.35      31.6  T
   7    -36.3065706 -0.248689E-08  0.298E-04    4.35      83.8  T
     SCC iter.                  ...        0 min,  0.002 sec
     gradient                   ...        0 min,  0.001 sec
 * total energy  :   -36.0590778 Eh     change       -0.4081747E-03 Eh
   gradient norm :     0.0203671 Eh/α   predicted    -0.4844815E-03 (  18.69%)
   displ. norm   :     0.1491498 α      lambda       -0.6136958E-03
   maximum displ.:     0.0994656 α      in ANC's #6, #2, #4, ...

........................................................................
.............................. CYCLE   15 ..............................
........................................................................

 iter      E             dE          RMSdq      gap      omega  full diag
   1    -36.3075626 -0.363076E+02  0.120E-01    4.38       0.0  T
   2    -36.3076355 -0.728473E-04  0.578E-02    4.38       1.0  T
   3    -36.3076380 -0.249173E-05  0.313E-02    4.39       1.0  T
   4    -36.3076381 -0.158305E-06  0.947E-03    4.38       2.6  T
   5    -36.3076386 -0.414181E-06  0.208E-03    4.39      12.0  T
   6    -36.3076386 -0.419675E-08  0.952E-04    4.39      26.3  T
   7    -36.3076386 -0.242213E-08  0.234E-04    4.39     106.8  T
     SCC iter.                  ...        0 min,  0.004 sec
     gradient                   ...        0 min,  0.001 sec
 * total energy  :   -36.0592932 Eh     change       -0.2153378E-03 Eh
   gradient norm :     0.0184250 Eh/α   predicted    -0.3136747E-03 (  45.67%)
   displ. norm   :     0.1781005 α      lambda       -0.3988142E-03
   maximum displ.:     0.0883946 α      in ANC's #3, #2, #4, ...

........................................................................
.............................. CYCLE   16 ..............................
........................................................................

 iter      E             dE          RMSdq      gap      omega  full diag
   1    -36.3067457 -0.363067E+02  0.128E-01    4.37       0.0  T
   2    -36.3067492 -0.352930E-05  0.755E-02    4.37       1.0  T
   3    -36.3067491  0.742445E-07  0.113E-02    4.37       2.2  T
   4    -36.3067503 -0.120455E-05  0.372E-03    4.37       6.7  T
   5    -36.3067503 -0.131960E-07  0.159E-03    4.37      15.7  T
   6    -36.3067503 -0.294553E-08  0.243E-04    4.37     102.9  T
   7    -36.3067503 -0.202149E-09  0.128E-04    4.37     194.8  T
     SCC iter.                  ...        0 min,  0.003 sec
     gradient                   ...        0 min,  0.001 sec
 * total energy  :   -36.0595667 Eh     change       -0.2735178E-03 Eh
   gradient norm :     0.0144029 Eh/α   predicted    -0.2057330E-03 ( -24.78%)
   displ. norm   :     0.2569288 α      lambda       -0.6774050E-03
   maximum displ.:     0.1336431 α      in ANC's #3, #1, #2, ...

........................................................................
.............................. CYCLE   17 ..............................
........................................................................

 iter      E             dE          RMSdq      gap      omega  full diag
   1    -36.3086868 -0.363087E+02  0.160E-01    4.42       0.0  T
   2    -36.3087225 -0.357082E-04  0.908E-02    4.41       1.0  T
   3    -36.3087239 -0.135609E-05  0.272E-02    4.41       1.0  T
   4    -36.3087245 -0.653569E-06  0.593E-03    4.41       4.2  T
   5    -36.3087248 -0.256329E-06  0.273E-03    4.41       9.2  T
   6    -36.3087248 -0.926067E-08  0.720E-04    4.41      34.7  T
   7    -36.3087248 -0.206469E-08  0.320E-04    4.41      78.2  T
     SCC iter.                  ...        0 min,  0.002 sec
     gradient                   ...        0 min,  0.001 sec
 * total energy  :   -36.0598620 Eh     change       -0.2953460E-03 Eh
   gradient norm :     0.0169300 Eh/α   predicted    -0.3610629E-03 (  22.25%)
   displ. norm   :     0.3427157 α      lambda       -0.5196249E-03
   maximum displ.:     0.1983213 α      in ANC's #6, #3, #2, ...

........................................................................
.............................. CYCLE   18 ..............................
........................................................................

 iter      E             dE          RMSdq      gap      omega  full diag
   1    -36.3038822 -0.363039E+02  0.229E-01    4.34       0.0  T
   2    -36.3039093 -0.271721E-04  0.134E-01    4.35       1.0  T
   3    -36.3039101 -0.727327E-06  0.233E-02    4.35       1.1  T
   4    -36.3039127 -0.266390E-05  0.702E-03    4.35       3.6  T
   5    -36.3039129 -0.215614E-06  0.371E-03    4.35       6.7  T
   6    -36.3039129 -0.117574E-07  0.901E-04    4.35      27.8  T
   7    -36.3039129 -0.299804E-08  0.254E-04    4.35      98.4  T
     SCC iter.                  ...        0 min,  0.002 sec
     gradient                   ...        0 min,  0.001 sec
 * total energy  :   -36.0600348 Eh     change       -0.1727915E-03 Eh
   gradient norm :     0.0235521 Eh/α   predicted    -0.2903328E-03 (  68.02%)
   displ. norm   :     0.1534551 α      lambda       -0.8062217E-03
   maximum displ.:     0.1273606 α      in ANC's #1, #4, #8, ...

........................................................................
.............................. CYCLE   19 ..............................
........................................................................

 iter      E             dE          RMSdq      gap      omega  full diag
   1    -36.3139743 -0.363140E+02  0.136E-01    4.46       0.0  T
   2    -36.3140559 -0.816594E-04  0.752E-02    4.45       1.0  T
   3    -36.3140604 -0.445838E-05  0.396E-02    4.46       1.0  T
   4    -36.3140618 -0.134823E-05  0.116E-02    4.45       2.2  T
   5    -36.3140621 -0.379154E-06  0.298E-03    4.46       8.4  T
   6    -36.3140621 -0.103940E-07  0.128E-03    4.46      19.5  T
   7    -36.3140621 -0.396618E-08  0.407E-04    4.46      61.4  T
   8    -36.3140621 -0.297582E-09  0.124E-04    4.46     202.1  T
     SCC iter.                  ...        0 min,  0.003 sec
     gradient                   ...        0 min,  0.001 sec
 * total energy  :   -36.0598399 Eh     change        0.1949476E-03 Eh
   gradient norm :     0.0339071 Eh/α   predicted    -0.4126017E-03 (-311.65%)
   displ. norm   :     0.1585014 α      lambda       -0.1229603E-02
   maximum displ.:     0.1105343 α      in ANC's #2, #8, #6, ...

........................................................................
.............................. CYCLE   20 ..............................
........................................................................

 iter      E             dE          RMSdq      gap      omega  full diag
   1    -36.3098438 -0.363098E+02  0.106E-01    4.43       0.0  T
   2    -36.3098756 -0.318022E-04  0.597E-02    4.43       1.0  T
   3    -36.3098771 -0.151913E-05  0.274E-02    4.43       1.0  T
   4    -36.3098782 -0.108006E-05  0.725E-03    4.43       3.4  T
   5    -36.3098784 -0.198795E-06  0.271E-03    4.43       9.2  T
   6    -36.3098784 -0.105565E-07  0.715E-04    4.43      35.0  T
   7    -36.3098784 -0.200968E-08  0.305E-04    4.43      82.0  T
     SCC iter.                  ...        0 min,  0.002 sec
     gradient                   ...        0 min,  0.001 sec
 * total energy  :   -36.0603397 Eh     change       -0.4998607E-03 Eh
   gradient norm :     0.0152229 Eh/α   predicted    -0.6302484E-03 (  26.08%)
   displ. norm   :     0.1579237 α      lambda       -0.4168540E-03
   maximum displ.:     0.0797050 α      in ANC's #1, #3, #4, ...
 * RMSD in coord.:     0.9169793 α      energy gain  -0.3490124E-01 Eh

generating ANC from model Hessian ...
Using Lindh-Hessian (1995)
 Shifting diagonal of input Hessian by    7.6875986182684073E-003
 Lowest  eigenvalues of input Hessian
    0.000000    0.000000    0.000000    0.000000    0.000000    0.000000
    0.010000    0.011515    0.015124    0.020239    0.020514    0.022681
    0.027753    0.034337    0.042796    0.046140    0.061365    0.063477
 Highest eigenvalues
    1.517698    1.546724    1.810106    1.820749    2.367087    2.374398


........................................................................
.............................. CYCLE   21 ..............................
........................................................................

 iter      E             dE          RMSdq      gap      omega  full diag
   1    -36.3086402 -0.363086E+02  0.121E-01    4.39       0.0  T
   2    -36.3086661 -0.258768E-04  0.687E-02    4.39       1.0  T
   3    -36.3086672 -0.107681E-05  0.233E-02    4.39       1.1  T
   4    -36.3086676 -0.374693E-06  0.469E-03    4.39       5.3  T
   5    -36.3086677 -0.121679E-06  0.232E-03    4.39      10.8  T
   6    -36.3086677 -0.668074E-08  0.898E-04    4.39      27.8  T
   7    -36.3086677 -0.265361E-08  0.269E-04    4.39      92.9  T
     SCC iter.                  ...        0 min,  0.003 sec
     gradient                   ...        0 min,  0.001 sec
 * total energy  :   -36.0604451 Eh     change       -0.1053325E-03 Eh
   gradient norm :     0.0149992 Eh/α   predicted     0.0000000E+00 (-100.00%)
   displ. norm   :     0.0650677 α      lambda       -0.2558967E-03
   maximum displ.:     0.0350840 α      in ANC's #1, #4, #3, ...

........................................................................
.............................. CYCLE   22 ..............................
........................................................................

 iter      E             dE          RMSdq      gap      omega  full diag
   1    -36.3107222 -0.363107E+02  0.415E-02    4.41       0.0  T
   2    -36.3107254 -0.321637E-05  0.245E-02    4.41       1.0  T
   3    -36.3107254 -0.619465E-07  0.928E-03    4.41       2.7  T
   4    -36.3107256 -0.180354E-06  0.194E-03    4.40      12.9  T
   5    -36.3107256 -0.176330E-07  0.790E-04    4.41      31.7  T
   6    -36.3107256 -0.803304E-09  0.374E-04    4.41      66.8  T
     SCC iter.                  ...        0 min,  0.002 sec
     gradient                   ...        0 min,  0.001 sec
 * total energy  :   -36.0606197 Eh     change       -0.1746055E-03 Eh
   gradient norm :     0.0041855 Eh/α   predicted    -0.1284900E-03 ( -26.41%)
   displ. norm   :     0.1039179 α      lambda       -0.1603555E-03
   maximum displ.:     0.0510601 α      in ANC's #1, #4, #5, ...

........................................................................
.............................. CYCLE   23 ..............................
........................................................................

 iter      E             dE          RMSdq      gap      omega  full diag
   1    -36.3116861 -0.363117E+02  0.479E-02    4.40       0.0  T
   2    -36.3116879 -0.180979E-05  0.283E-02    4.40       1.0  T
   3    -36.3116879 -0.312579E-07  0.642E-03    4.40       3.9  T
   4    -36.3116880 -0.126278E-06  0.153E-03    4.40      16.4  T
   5    -36.3116880 -0.114826E-07  0.736E-04    4.40      34.0  T
   6    -36.3116880 -0.498915E-09  0.283E-04    4.40      88.4  T
     SCC iter.                  ...        0 min,  0.002 sec
     gradient                   ...        0 min,  0.001 sec
 * total energy  :   -36.0607401 Eh     change       -0.1204022E-03 Eh
   gradient norm :     0.0056933 Eh/α   predicted    -0.8104380E-04 ( -32.69%)
   displ. norm   :     0.2283486 α      lambda       -0.2426757E-03
   maximum displ.:     0.1116610 α      in ANC's #1, #4, #5, ...

........................................................................
.............................. CYCLE   24 ..............................
........................................................................

 iter      E             dE          RMSdq      gap      omega  full diag
   1    -36.3108906 -0.363109E+02  0.951E-02    4.37       0.0  T
   2    -36.3108929 -0.229756E-05  0.569E-02    4.36       1.0  T
   3    -36.3108933 -0.396028E-06  0.618E-03    4.36       4.0  T
   4    -36.3108935 -0.120506E-06  0.248E-03    4.36      10.1  T
   5    -36.3108935 -0.837884E-08  0.121E-03    4.36      20.7  T
   6    -36.3108935 -0.116395E-08  0.287E-04    4.36      87.2  T
   7    -36.3108935 -0.373646E-09  0.131E-04    4.36     190.2  T
     SCC iter.                  ...        0 min,  0.004 sec
     gradient                   ...        0 min,  0.001 sec
 * total energy  :   -36.0608922 Eh     change       -0.1521480E-03 Eh
   gradient norm :     0.0154298 Eh/α   predicted    -0.1276642E-03 ( -16.09%)
   displ. norm   :     0.1061937 α      lambda       -0.1505060E-03
   maximum displ.:     0.0561159 α      in ANC's #1, #5, #4, ...

........................................................................
.............................. CYCLE   25 ..............................
........................................................................

 iter      E             dE          RMSdq      gap      omega  full diag
   1    -36.3103625 -0.363104E+02  0.420E-02    4.33       0.0  T
   2    -36.3103630 -0.501964E-06  0.250E-02    4.33       1.0  T
   3    -36.3103631 -0.622181E-07  0.329E-03    4.33       7.6  T
   4    -36.3103631 -0.500807E-07  0.127E-03    4.33      19.7  T
   5    -36.3103631 -0.402827E-08  0.643E-04    4.33      38.9  T
   6    -36.3103631 -0.374250E-09  0.138E-04    4.33     181.3  T
     SCC iter.                  ...        0 min,  0.002 sec
     gradient                   ...        0 min,  0.001 sec
 * total energy  :   -36.0610213 Eh     change       -0.1290679E-03 Eh
   gradient norm :     0.0138876 Eh/α   predicted    -0.7610381E-04 ( -41.04%)
   displ. norm   :     0.2299552 α      lambda       -0.5295880E-03
   maximum displ.:     0.1363204 α      in ANC's #1, #5, #4, ...

........................................................................
.............................. CYCLE   26 ..............................
........................................................................

 iter      E             dE          RMSdq      gap      omega  full diag
   1    -36.3098506 -0.363099E+02  0.989E-02    4.28       0.0  T
   2    -36.3098605 -0.988043E-05  0.576E-02    4.28       1.0  T
   3    -36.3098611 -0.549039E-06  0.147E-02    4.27       1.7  T
   4    -36.3098615 -0.409651E-06  0.402E-03    4.27       6.2  T
   5    -36.3098616 -0.865381E-07  0.203E-03    4.27      12.3  T
   6    -36.3098616 -0.568176E-08  0.613E-04    4.27      40.8  T
   7    -36.3098616 -0.105124E-08  0.252E-04    4.27      99.3  T
     SCC iter.                  ...        0 min,  0.002 sec
     gradient                   ...        0 min,  0.001 sec
 * total energy  :   -36.0612830 Eh     change       -0.2617607E-03 Eh
   gradient norm :     0.0084795 Eh/α   predicted    -0.2787977E-03 (   6.51%)
   displ. norm   :     0.2612682 α      lambda       -0.2284514E-03
   maximum displ.:     0.1492869 α      in ANC's #1, #5, #4, ...

........................................................................
.............................. CYCLE   27 ..............................
........................................................................

 iter      E             dE          RMSdq      gap      omega  full diag
   1    -36.3068478 -0.363068E+02  0.113E-01    4.24       0.0  T
   2    -36.3068521 -0.429959E-05  0.681E-02    4.23       1.0  T
   3    -36.3068532 -0.111699E-05  0.941E-03    4.23       2.7  T
   4    -36.3068536 -0.372078E-06  0.438E-03    4.23       5.7  T
   5    -36.3068537 -0.291427E-07  0.199E-03    4.23      12.6  T
   6    -36.3068537 -0.681171E-08  0.673E-04    4.23      37.1  T
   7    -36.3068537 -0.151875E-08  0.271E-04    4.23      92.4  T
     SCC iter.                  ...        0 min,  0.003 sec
     gradient                   ...        0 min,  0.001 sec
 * total energy  :   -36.0611244 Eh     change        0.1586659E-03 Eh
   gradient norm :     0.0223255 Eh/α   predicted    -0.1220200E-03 (-176.90%)
   displ. norm   :     0.1626481 α      lambda       -0.5899710E-03
   maximum displ.:     0.0759681 α      in ANC's #1, #4, #5, ...

........................................................................
.............................. CYCLE   28 ..............................
........................................................................

 iter      E             dE          RMSdq      gap      omega  full diag
   1    -36.3105535 -0.363106E+02  0.794E-02    4.27       0.0  T
   2    -36.3105555 -0.202356E-05  0.477E-02    4.27       1.0  T
   3    -36.3105561 -0.614786E-06  0.701E-03    4.28       3.6  T
   4    -36.3105564 -0.216261E-06  0.343E-03    4.28       7.3  T
   5    -36.3105564 -0.199457E-07  0.164E-03    4.28      15.2  T
   6    -36.3105564 -0.454740E-08  0.383E-04    4.28      65.3  T
   7    -36.3105564 -0.538385E-09  0.182E-04    4.28     137.7  T
     SCC iter.                  ...        0 min,  0.003 sec
     gradient                   ...        0 min,  0.001 sec
 * total energy  :   -36.0613879 Eh     change       -0.2635750E-03 Eh
   gradient norm :     0.0048691 Eh/α   predicted    -0.3027902E-03 (  14.88%)
   displ. norm   :     0.0407563 α      lambda       -0.3950017E-04
   maximum displ.:     0.0292489 α      in ANC's #1, #8, #7, ...

........................................................................
.............................. CYCLE   29 ..............................
........................................................................

 iter      E             dE          RMSdq      gap      omega  full diag
   1    -36.3109392 -0.363109E+02  0.179E-02    4.28       0.0  T
   2    -36.3109394 -0.178242E-06  0.109E-02    4.28       2.3  T
   3    -36.3109394  0.191012E-08  0.234E-03    4.28      10.7  T
   4    -36.3109395 -0.351739E-07  0.616E-04    4.27      40.6  T
   5    -36.3109395 -0.491148E-09  0.309E-04    4.27      80.9  T
     SCC iter.                  ...        0 min,  0.001 sec
     gradient                   ...        0 min,  0.001 sec
 * total energy  :   -36.0614227 Eh     change       -0.3471649E-04 Eh
   gradient norm :     0.0032163 Eh/α   predicted    -0.1978145E-04 ( -43.02%)
   displ. norm   :     0.1916471 α      lambda       -0.1357597E-03
   maximum displ.:     0.1358383 α      in ANC's #1, #8, #7, ...

........................................................................
.............................. CYCLE   30 ..............................
........................................................................

 iter      E             dE          RMSdq      gap      omega  full diag
   1    -36.3109946 -0.363110E+02  0.795E-02    4.26       0.0  T
   2    -36.3109969 -0.229887E-05  0.484E-02    4.26       1.0  T
   3    -36.3109972 -0.281931E-06  0.704E-03    4.25       3.6  T
   4    -36.3109974 -0.284016E-06  0.269E-03    4.25       9.3  T
   5    -36.3109975 -0.717896E-08  0.117E-03    4.25      21.3  T
   6    -36.3109975 -0.282789E-08  0.416E-04    4.25      60.1  T
   7    -36.3109975 -0.380041E-09  0.103E-04    4.25     241.7  T
     SCC iter.                  ...        0 min,  0.002 sec
     gradient                   ...        0 min,  0.001 sec
 * total energy  :   -36.0615109 Eh     change       -0.8819198E-04 Eh
   gradient norm :     0.0051670 Eh/α   predicted    -0.7037335E-04 ( -20.20%)
   displ. norm   :     0.0719796 α      lambda       -0.4383252E-04
   maximum displ.:     0.0519959 α      in ANC's #1, #8, #9, ...

........................................................................
.............................. CYCLE   31 ..............................
........................................................................

 iter      E             dE          RMSdq      gap      omega  full diag
   1    -36.3110361 -0.363110E+02  0.331E-02    4.24       0.0  T
   2    -36.3110363 -0.229797E-06  0.200E-02    4.24       1.3  T
   3    -36.3110364 -0.617272E-07  0.216E-03    4.24      11.6  T
   4    -36.3110364 -0.195717E-07  0.109E-03    4.24      22.8  T
   5    -36.3110364 -0.999123E-09  0.451E-04    4.24      55.5  T
   6    -36.3110364 -0.251525E-09  0.928E-05    4.24     269.3  T
     SCC iter.                  ...        0 min,  0.002 sec
     gradient                   ...        0 min,  0.001 sec
 * total energy  :   -36.0615449 Eh     change       -0.3407398E-04 Eh
   gradient norm :     0.0037590 Eh/α   predicted    -0.2203136E-04 ( -35.34%)
   displ. norm   :     0.0897220 α      lambda       -0.6168304E-04
   maximum displ.:     0.0502482 α      in ANC's #1, #3, #8, ...

........................................................................
.............................. CYCLE   32 ..............................
........................................................................

 iter      E             dE          RMSdq      gap      omega  full diag
   1    -36.3114347 -0.363114E+02  0.519E-02    4.22       0.0  T
   2    -36.3114353 -0.612210E-06  0.308E-02    4.22       1.0  T
   3    -36.3114355 -0.121462E-06  0.407E-03    4.22       6.1  T
   4    -36.3114356 -0.100006E-06  0.187E-03    4.22      13.4  T
   5    -36.3114356 -0.434138E-08  0.819E-04    4.22      30.5  T
   6    -36.3114356 -0.638060E-09  0.101E-04    4.22     248.3  T
     SCC iter.                  ...        0 min,  0.002 sec
     gradient                   ...        0 min,  0.001 sec
 * total energy  :   -36.0615835 Eh     change       -0.3859810E-04 Eh
   gradient norm :     0.0019024 Eh/α   predicted    -0.3108963E-04 ( -19.45%)
   displ. norm   :     0.2105624 α      lambda       -0.4280247E-04
   maximum displ.:     0.1223697 α      in ANC's #1, #8, #3, ...

........................................................................
.............................. CYCLE   33 ..............................
........................................................................

 iter      E             dE          RMSdq      gap      omega  full diag
   1    -36.3096066 -0.363096E+02  0.112E-01    4.17       0.0  T
   2    -36.3096090 -0.238566E-05  0.672E-02    4.17       1.0  T
   3    -36.3096097 -0.702748E-06  0.782E-03    4.17       3.2  T
   4    -36.3096100 -0.319349E-06  0.394E-03    4.17       6.4  T
   5    -36.3096100 -0.105056E-07  0.126E-03    4.17      19.8  T
   6    -36.3096100 -0.302105E-08  0.287E-04    4.17      87.1  T
   7    -36.3096100 -0.242736E-09  0.133E-04    4.17     188.5  T
     SCC iter.                  ...        0 min,  0.002 sec
     gradient                   ...        0 min,  0.001 sec
 * total energy  :   -36.0615323 Eh     change        0.5120641E-04 Eh
   gradient norm :     0.0093912 Eh/α   predicted    -0.2182348E-04 (-142.62%)
   displ. norm   :     0.0996115 α      lambda       -0.1335586E-03
   maximum displ.:     0.0717677 α      in ANC's #1, #8, #2, ...

........................................................................
.............................. CYCLE   34 ..............................
........................................................................

 iter      E             dE          RMSdq      gap      omega  full diag
   1    -36.3110004 -0.363110E+02  0.452E-02    4.19       0.0  T
   2    -36.3110010 -0.566580E-06  0.273E-02    4.19       1.0  T
   3    -36.3110011 -0.157843E-06  0.390E-03    4.19       6.4  T
   4    -36.3110012 -0.816647E-07  0.183E-03    4.19      13.6  T
   5    -36.3110012 -0.316851E-08  0.653E-04    4.19      38.3  T
   6    -36.3110012 -0.132168E-08  0.188E-04    4.19     132.9  T
     SCC iter.                  ...        0 min,  0.002 sec
     gradient                   ...        0 min,  0.001 sec
 * total energy  :   -36.0616056 Eh     change       -0.7332277E-04 Eh
   gradient norm :     0.0020784 Eh/α   predicted    -0.6744254E-04 (  -8.02%)
   displ. norm   :     0.0293561 α      lambda       -0.1035366E-04
   maximum displ.:     0.0253815 α      in ANC's #1, #3, #2, ...

........................................................................
.............................. CYCLE   35 ..............................
........................................................................

 iter      E             dE          RMSdq      gap      omega  full diag
   1    -36.3113073 -0.363113E+02  0.124E-02    4.19       0.0  T
   2    -36.3113074 -0.507315E-07  0.738E-03    4.19       3.4  T
   3    -36.3113074 -0.420501E-08  0.128E-03    4.19      19.6  T
   4    -36.3113074 -0.106158E-07  0.451E-04    4.19      55.4  T
   5    -36.3113074 -0.341032E-09  0.242E-04    4.19     103.3  T
     SCC iter.                  ...        0 min,  0.001 sec
     gradient                   ...        0 min,  0.001 sec
 * total energy  :   -36.0616134 Eh     change       -0.7762343E-05 Eh
   gradient norm :     0.0008070 Eh/α   predicted    -0.5181893E-05 ( -33.24%)
   displ. norm   :     0.0512418 α      lambda       -0.7981593E-05
   maximum displ.:     0.0393825 α      in ANC's #1, #3, #4, ...

........................................................................
.............................. CYCLE   36 ..............................
........................................................................

 iter      E             dE          RMSdq      gap      omega  full diag
   1    -36.3115431 -0.363115E+02  0.248E-02    4.19       0.0  T
   2    -36.3115433 -0.133434E-06  0.146E-02    4.19       1.7  T
   3    -36.3115433 -0.239247E-07  0.196E-03    4.19      12.8  T
   4    -36.3115433 -0.256059E-07  0.856E-04    4.19      29.2  T
   5    -36.3115433 -0.941050E-09  0.378E-04    4.19      66.1  T
     SCC iter.                  ...        0 min,  0.001 sec
     gradient                   ...        0 min,  0.001 sec
 * total energy  :   -36.0616223 Eh     change       -0.8864107E-05 Eh
   gradient norm :     0.0014115 Eh/α   predicted    -0.3995990E-05 ( -54.92%)
   displ. norm   :     0.0602825 α      lambda       -0.8515846E-05
   maximum displ.:     0.0433962 α      in ANC's #1, #3, #4, ...

........................................................................
.............................. CYCLE   37 ..............................
........................................................................

 iter      E             dE          RMSdq      gap      omega  full diag
   1    -36.3115037 -0.363115E+02  0.328E-02    4.19       0.0  T
   2    -36.3115039 -0.192405E-06  0.195E-02    4.19       1.3  T
   3    -36.3115039 -0.408338E-07  0.224E-03    4.19      11.2  T
   4    -36.3115039 -0.305595E-07  0.106E-03    4.19      23.6  T
   5    -36.3115039 -0.107250E-08  0.419E-04    4.19      59.7  T
   6    -36.3115039 -0.203244E-09  0.842E-05    4.19     296.8  T
     SCC iter.                  ...        0 min,  0.003 sec
     gradient                   ...        0 min,  0.001 sec
 * total energy  :   -36.0616333 Eh     change       -0.1105485E-04 Eh
   gradient norm :     0.0013803 Eh/α   predicted    -0.4264730E-05 ( -61.42%)
   displ. norm   :     0.1306625 α      lambda       -0.1648422E-04
   maximum displ.:     0.0850336 α      in ANC's #1, #3, #4, ...

........................................................................
.............................. CYCLE   38 ..............................
........................................................................

 iter      E             dE          RMSdq      gap      omega  full diag
   1    -36.3109585 -0.363110E+02  0.745E-02    4.17       0.0  T
   2    -36.3109594 -0.901740E-06  0.444E-02    4.17       1.0  T
   3    -36.3109596 -0.185090E-06  0.537E-03    4.17       4.7  T
   4    -36.3109598 -0.199663E-06  0.248E-03    4.17      10.1  T
   5    -36.3109598 -0.420263E-08  0.648E-04    4.17      38.6  T
   6    -36.3109598 -0.802260E-09  0.180E-04    4.17     138.8  T
     SCC iter.                  ...        0 min,  0.002 sec
     gradient                   ...        0 min,  0.001 sec
 * total energy  :   -36.0616497 Eh     change       -0.1638149E-04 Eh
   gradient norm :     0.0014106 Eh/α   predicted    -0.8304487E-05 ( -49.31%)
   displ. norm   :     0.0688756 α      lambda       -0.6867435E-05
   maximum displ.:     0.0545481 α      in ANC's #1, #3, #2, ...

........................................................................
.............................. CYCLE   39 ..............................
........................................................................

 iter      E             dE          RMSdq      gap      omega  full diag
   1    -36.3109903 -0.363110E+02  0.351E-02    4.16       0.0  T
   2    -36.3109905 -0.165888E-06  0.210E-02    4.16       1.2  T
   3    -36.3109905 -0.415112E-07  0.222E-03    4.16      11.2  T
   4    -36.3109905 -0.312365E-07  0.109E-03    4.16      23.0  T
   5    -36.3109905 -0.774094E-09  0.239E-04    4.16     104.4  T
   6    -36.3109905 -0.163958E-09  0.936E-05    4.16     267.0  T
     SCC iter.                  ...        0 min,  0.003 sec
     gradient                   ...        0 min,  0.001 sec
 * total energy  :   -36.0616571 Eh     change       -0.7395554E-05 Eh
   gradient norm :     0.0014679 Eh/α   predicted    -0.3439598E-05 ( -53.49%)
   displ. norm   :     0.0426875 α      lambda       -0.5081970E-05
   maximum displ.:     0.0357683 α      in ANC's #1, #2, #5, ...

........................................................................
.............................. CYCLE   40 ..............................
........................................................................

 iter      E             dE          RMSdq      gap      omega  full diag
   1    -36.3112968 -0.363113E+02  0.186E-02    4.16       0.0  T
   2    -36.3112969 -0.424093E-07  0.111E-02    4.16       2.3  T
   3    -36.3112969 -0.194418E-07  0.919E-04    4.16      27.2  T
   4    -36.3112969 -0.174928E-08  0.533E-04    4.16      46.9  T
     SCC iter.                  ...        0 min,  0.001 sec
     gradient                   ...        0 min,  0.001 sec
 * total energy  :   -36.0616625 Eh     change       -0.5376653E-05 Eh
   gradient norm :     0.0005209 Eh/α   predicted    -0.2543587E-05 ( -52.69%)
   displ. norm   :     0.0367902 α      lambda       -0.2333649E-05
   maximum displ.:     0.0294071 α      in ANC's #1, #6, #3, ...

........................................................................
.............................. CYCLE   41 ..............................
........................................................................

 iter      E             dE          RMSdq      gap      omega  full diag
   1    -36.3112895 -0.363113E+02  0.166E-02    4.16       0.0  T
   2    -36.3112896 -0.434600E-07  0.994E-03    4.16       2.5  T
   3    -36.3112896 -0.154470E-07  0.104E-03    4.16      24.1  T
   4    -36.3112896 -0.429701E-08  0.550E-04    4.16      45.5  T
   5    -36.3112896 -0.449681E-09  0.205E-04    4.16     122.2  T
     SCC iter.                  ...        0 min,  0.001 sec
     gradient                   ...        0 min,  0.001 sec
 * total energy  :   -36.0616651 Eh     change       -0.2653785E-05 Eh
   gradient norm :     0.0003162 Eh/α   predicted    -0.1165738E-05 ( -56.07%)
   displ. norm   :     0.0357406 α      lambda       -0.1679022E-05
   maximum displ.:     0.0275421 α      in ANC's #1, #6, #3, ...

   *** GEOMETRY OPTIMIZATION CONVERGED AFTER 41 ITERATIONS ***

------------------------------------------------------------------------
 total energy gain   :        -0.0362267 Eh      -22.7326 kcal/mol
 total RMSD          :         0.9893965 a0        0.5236 Å
 total power (kW/mol):        -2.3198310 (step) -517.8616 (real)
------------------------------------------------------------------------

 ANCopt (total)                0 d,  0 h,  0 min,  0.184 sec
 optimizer setup                ...        0 min,  0.000 sec (  0.149%)
 model hessian                  ...        0 min,  0.010 sec (  5.200%)
 ANC generation                 ...        0 min,  0.002 sec (  1.179%)
 coordinate transformation      ...        0 min,  0.000 sec (  0.086%)
 single point calculation       ...        0 min,  0.161 sec ( 87.816%)
 optimization log               ...        0 min,  0.004 sec (  1.972%)
 hessian update                 ...        0 min,  0.000 sec (  0.202%)
 rational function              ...        0 min,  0.005 sec (  2.727%)

================
 final structure:
================
16
 xtb: 6.6.0 (conda-forge)
C           -0.59546498950100       -0.82252492634982        0.05273829591653
C            0.66848690148719       -0.53236167066867       -0.81285773894925
C            1.47791700392508        0.55243069208180       -0.11258983145125
O            2.54898703654477        0.34507746048045        0.40607973525780
O            0.86915185224467        1.71989797666736       -0.12088814070944
O            1.42628908428651       -1.67842437092135       -1.03208518077696
C           -1.55625901473927        0.35448875515826        0.00335910393980
O           -1.94605276456547        0.88734429779591        1.01994206540708
O           -1.91332892741382        0.69625871857108       -1.20703109747544
O           -0.23818426756811       -1.10551902141750        1.37801571573242
H           -1.08873021813510       -1.69908400222261       -0.39330702686185
H            0.33657647204932       -0.17093925773532       -1.79109004366713
H            1.37976134969488        2.42075454356930        0.33580172140128
H            1.94368093593130       -1.87769404256135       -0.23527395910705
H           -2.54148516985795        1.44830917598520       -1.22807028701689
H           -0.77114528438316       -0.53811432843250        1.96475666836018

 Bond Distances (Angstroems)
 ---------------------------
C1-C2=1.5592         C1-C7=1.5202         C1-O10=1.4015        C1-H11=1.1003        C2-C1=1.5592         C2-C3=1.5239         
C2-O6=1.3913         C2-H12=1.0944        C3-C2=1.5239         C3-O4=1.2080         C3-O5=1.3167         O4-C3=1.2080         
O5-C3=1.3167         O5-H13=0.9800        O6-C2=1.3913         O6-H14=0.9707        C7-C1=1.5202         C7-O8=1.2122         
C7-O9=1.3074         O8-C7=1.2122         O9-C7=1.3074         O9-H15=0.9801        O10-C1=1.4015        O10-H16=0.9748       
H11-C1=1.1003        H12-C2=1.0944        H13-O5=0.9800        H14-O6=0.9707        H15-O9=0.9801        H16-O10=0.9748       
 C  H  Rav=1.0973 sigma=0.0029  Rmin=1.0944  Rmax=1.1003     2
 C  C  Rav=1.5344 sigma=0.0176  Rmin=1.5202  Rmax=1.5592     3
 O  H  Rav=0.9764 sigma=0.0039  Rmin=0.9707  Rmax=0.9801     4
 O  C  Rav=1.3062 sigma=0.0763  Rmin=1.2080  Rmax=1.4015     6

 selected bond angles (degree)
 --------------------
C7-C1-C2=110.50                O10-C1-C2=110.85               O10-C1-C7=110.38               H11-C1-C2=106.66               
H11-C1-C7=108.68               H11-C1-O10=109.68              C3-C2-C1=107.94                O6-C2-C1=112.07                
O6-C2-C3=111.68                H12-C2-C1=108.17               H12-C2-C3=109.68               H12-C2-O6=107.24               
O4-C3-C2=123.10                O5-C3-C2=112.50                O5-C3-O4=124.39                H13-O5-C3=112.97               
H14-O6-C2=109.27               O8-C7-C1=121.09                O9-C7-C1=113.90                O9-C7-O8=125.01                
H15-O9-C7=113.30               H16-O10-C1=108.20              

 selected dihedral angles (degree)
 ---------------------------------
C3-C2-C1-C7= 69.75            C3-C2-C1-O10=307.06           C3-C2-C1-H11=187.71           O6-C2-C1-C7=193.14            
O6-C2-C1-O10= 70.44           O6-C2-C1-H11=311.10           H12-C2-C1-C7=311.15           H12-C2-C1-O10=188.45          
H12-C2-C1-H11= 69.11          O4-C3-C2-C1=110.59            O4-C3-C2-O6=346.97            O4-C3-C2-H12=228.23           
O5-C3-C2-C1=291.64            O5-C3-C2-O6=168.02            O5-C3-C2-H12= 49.28           H13-O5-C3-C2=179.42           
H13-O5-C3-O4=  0.48           H14-O6-C2-C1=282.26           H14-O6-C2-C3= 43.52           H14-O6-C2-H12=163.70          
O8-C7-C1-C2=234.69            O8-C7-C1-O10=357.66           O8-C7-C1-H11=117.98           O9-C7-C1-C2= 55.66            
O9-C7-C1-O10=178.63           O9-C7-C1-H11=298.95           H15-O9-C7-C1=179.26           H15-O9-C7-O8=  0.28           
H16-O10-C1-C2=128.93          H16-O10-C1-C7=  6.17          H16-O10-C1-H11=246.45         
           -------------------------------------------------
          |                Final Singlepoint                |
           -------------------------------------------------

          ...................................................
          :                      SETUP                      :
          :.................................................:
          :  # basis functions                  46          :
          :  # atomic orbitals                  46          :
          :  # shells                           26          :
          :  # electrons                        58          :
          :  max. iterations                   250          :
          :  Hamiltonian                  GFN2-xTB          :
          :  restarted?                      false          :
          :  GBSA solvation                   true          :
          :  PC potential                    false          :
          :  electronic temp.          300.0000000     K    :
          :  accuracy                    1.0000000          :
          :  -> integral cutoff          0.2500000E+02      :
          :  -> integral neglect         0.1000000E-07      :
          :  -> SCF convergence          0.1000000E-05 Eh   :
          :  -> wf. convergence          0.1000000E-03 e    :
          :  Broyden damping             0.4000000          :
          ...................................................

 iter      E             dE          RMSdq      gap      omega  full diag
   1    -36.3112896 -0.363113E+02  0.548E-05    4.16       0.0  T
   2    -36.3112896 -0.817835E-11  0.340E-05    4.16     734.5  T
   3    -36.3112896 -0.206057E-11  0.184E-05    4.16    1361.0  T

   *** convergence criteria satisfied after 3 iterations ***

         #    Occupation            Energy/Eh            Energy/eV
      -------------------------------------------------------------
         1        2.0000           -0.7647808             -20.8107
       ...           ...                  ...                  ...
        23        2.0000           -0.4967505             -13.5173
        24        2.0000           -0.4942535             -13.4493
        25        2.0000           -0.4871904             -13.2571
        26        2.0000           -0.4653295             -12.6623
        27        2.0000           -0.4458741             -12.1329
        28        2.0000           -0.4409651             -11.9993
        29        2.0000           -0.4171884             -11.3523 (HOMO)
        30                         -0.2643787              -7.1941 (LUMO)
        31                         -0.2465979              -6.7103
        32                          0.0171299               0.4661
        33                          0.0263875               0.7180
        34                          0.0457280               1.2443
       ...                                ...                  ...
        46                          0.6119671              16.6525
      -------------------------------------------------------------
                  HL-Gap            0.1528098 Eh            4.1582 eV
             Fermi-level           -0.3407836 Eh           -9.2732 eV

 SCC (total)                   0 d,  0 h,  0 min,  0.002 sec
 SCC setup                      ...        0 min,  0.000 sec (  4.821%)
 Dispersion                     ...        0 min,  0.000 sec (  1.322%)
 classical contributions        ...        0 min,  0.000 sec (  0.427%)
 integral evaluation            ...        0 min,  0.000 sec ( 14.972%)
 iterations                     ...        0 min,  0.001 sec ( 38.914%)
 molecular gradient             ...        0 min,  0.001 sec ( 37.449%)
 printout                       ...        0 min,  0.000 sec (  1.790%)

         :::::::::::::::::::::::::::::::::::::::::::::::::::::
         ::                     SUMMARY                     ::
         :::::::::::::::::::::::::::::::::::::::::::::::::::::
         :: total energy             -36.061665132646 Eh    ::
         :: total w/o Gsasa/hb       -36.041643020705 Eh    ::
         :: gradient norm              0.000319845974 Eh/a0 ::
         :: HOMO-LUMO gap              4.158164992607 eV    ::
         ::.................................................::
         :: SCC energy               -36.311289605296 Eh    ::
         :: -> isotropic ES            0.172203650088 Eh    ::
         :: -> anisotropic ES         -0.002999263392 Eh    ::
         :: -> anisotropic XC         -0.009287629661 Eh    ::
         :: -> dispersion             -0.011906712487 Eh    ::
         :: -> Gsolv                  -0.042243409544 Eh    ::
         ::    -> Gelec               -0.022221297603 Eh    ::
         ::    -> Gsasa                0.007161208828 Eh    ::
         ::    -> Ghb                 -0.028264080468 Eh    ::
         ::    -> Gshift               0.001080759698 Eh    ::
         :: repulsion energy           0.249575520250 Eh    ::
         :: add. restraining           0.000000000000 Eh    ::
         :: total charge              -0.000000000000 e     ::
         :::::::::::::::::::::::::::::::::::::::::::::::::::::

           -------------------------------------------------
          |                Property Printout                |
           -------------------------------------------------

    * Orbital Energies and Occupations

         #    Occupation            Energy/Eh            Energy/eV
      -------------------------------------------------------------
         1        2.0000           -0.7647808             -20.8107
       ...           ...                  ...                  ...
        17        2.0000           -0.5594536             -15.2235
        18        2.0000           -0.5484230             -14.9233
        19        2.0000           -0.5357547             -14.5786
        20        2.0000           -0.5350121             -14.5584
        21        2.0000           -0.5271836             -14.3454
        22        2.0000           -0.4991474             -13.5825
        23        2.0000           -0.4967505             -13.5173
        24        2.0000           -0.4942535             -13.4493
        25        2.0000           -0.4871904             -13.2571
        26        2.0000           -0.4653295             -12.6623
        27        2.0000           -0.4458741             -12.1329
        28        2.0000           -0.4409651             -11.9993
        29        2.0000           -0.4171884             -11.3523 (HOMO)
        30                         -0.2643787              -7.1941 (LUMO)
        31                         -0.2465979              -6.7103
        32                          0.0171299               0.4661
        33                          0.0263875               0.7180
        34                          0.0457280               1.2443
        35                          0.0698348               1.9003
        36                          0.0824989               2.2449
        37                          0.1445616               3.9337
        38                          0.1574372               4.2841
        39                          0.1653272               4.4988
        40                          0.1728773               4.7042
       ...                                ...                  ...
        46                          0.6119671              16.6525
      -------------------------------------------------------------
                  HL-Gap            0.1528098 Eh            4.1582 eV
             Fermi-level           -0.3407836 Eh           -9.2732 eV

     #   Z          covCN         q      C6AA      α(0)
     1   6 C        3.727     0.081    19.324     6.276
     2   6 C        3.726     0.085    19.263     6.266
     3   6 C        2.690     0.363    20.847     7.472
     4   8 O        0.856    -0.454    22.791     6.401
     5   8 O        1.659    -0.411    21.072     6.197
     6   8 O        1.656    -0.470    22.252     6.368
     7   6 C        2.689     0.358    20.924     7.486
     8   8 O        0.856    -0.464    23.001     6.430
     9   8 O        1.659    -0.395    20.758     6.151
    10   8 O        1.655    -0.493    22.736     6.437
    11   1 H        0.923     0.091     1.867     2.137
    12   1 H        0.924     0.099     1.796     2.096
    13   1 H        0.803     0.437     0.423     1.022
    14   1 H        0.804     0.366     0.553     1.168
    15   1 H        0.803     0.444     0.412     1.008
    16   1 H        0.804     0.364     0.556     1.172

 Mol. C6AA /au·bohr⁶  :       2647.650683
 Mol. C8AA /au·bohr⁸  :      58298.101380
 Mol. α(0) /au        :         74.086339


Wiberg/Mayer (AO) data.
largest (>0.10) Wiberg bond orders for each atom

 ---------------------------------------------------------------------------
     #   Z sym  total        # sym  WBO       # sym  WBO       # sym  WBO
 ---------------------------------------------------------------------------
     1   6 C    3.962 --    10 O    1.014     7 C    0.953    11 H    0.930
                             2 C    0.916
     2   6 C    3.963 --     6 O    1.025     3 C    0.944    12 H    0.940
                             1 C    0.916
     3   6 C    3.915 --     4 O    1.725     5 O    1.195     2 C    0.944
     4   8 O    2.006 --     3 C    1.725     5 O    0.180
     5   8 O    2.191 --     3 C    1.195    13 H    0.784     4 O    0.180
     6   8 O    1.957 --     2 C    1.025    14 H    0.846
     7   6 C    3.921 --     8 O    1.694     9 O    1.218     1 C    0.953
     8   8 O    1.999 --     7 C    1.694     9 O    0.179
     9   8 O    2.209 --     7 C    1.218    15 H    0.778     8 O    0.179
    10   8 O    1.926 --     1 C    1.014    16 H    0.834
    11   1 H    0.992 --     1 C    0.930
    12   1 H    0.990 --     2 C    0.940
    13   1 H    0.809 --     5 O    0.784
    14   1 H    0.866 --     6 O    0.846
    15   1 H    0.803 --     9 O    0.778
    16   1 H    0.867 --    10 O    0.834
 ---------------------------------------------------------------------------

Topologies differ in total number of bonds
Writing topology from bond orders to xtbtopo.mol

molecular dipole:
                 x           y           z       tot (Debye)
 q only:       -1.101       1.214      -0.777
   full:       -1.243       1.482      -0.656       5.191
molecular quadrupole (traceless):
                xx          xy          yy          xz          yz          zz
 q only:       -3.940       1.182       6.443       6.276      -3.666      -2.503
  q+dip:       -2.941       3.376       6.961       6.731      -4.007      -4.020
   full:       -3.035       3.269       6.708       6.354      -4.332      -3.672

           -------------------------------------------------
          |                Geometry Summary                 |
           -------------------------------------------------

      molecular mass/u    :      150.0870176
   center of mass at/Å    :        0.0742118       0.0535233      -0.0312829
  moments of inertia/u·Å² :        0.2618168E+03   0.4634259E+03   0.5135850E+03
rotational constants/cm⁻¹ :        0.6438714E-01   0.3637611E-01   0.3282345E-01

 * 12 selected distances

     #   Z          #   Z                                           value/Å
     3   6 C        4   8 O                                       1.2079755
     3   6 C        5   8 O                                       1.3166792
     2   6 C        6   8 O                                       1.3913249
     7   6 C        8   8 O                                       1.2121532
     7   6 C        9   8 O                                       1.3074213
     1   6 C       10   8 O                                       1.4014620 (max)
     1   6 C       11   1 H                                       1.1002832
     2   6 C       12   1 H                                       1.0944082
     5   8 O       13   1 H                                       0.9800448
     6   8 O       14   1 H                                       0.9707271 (min)
     9   8 O       15   1 H                                       0.9801036
    10   8 O       16   1 H                                       0.9748131

 * 3 distinct bonds (by element types)

   Z      Z             #   av. dist./Å        max./Å        min./Å
   1 H    6 C           2     1.0973457     1.1002832     1.0944082
   1 H    8 O           4     0.9764221     0.9801036     0.9707271
   6 C    8 O           6     1.3061693     1.4014620     1.2079755


optimized geometry written to: xtbopt.xyz


           -------------------------------------------------
          | TOTAL ENERGY              -36.061665132646 Eh   |
          | GRADIENT NORM               0.000319845974 Eh/α |
          | HOMO-LUMO GAP               4.158164992607 eV   |
           -------------------------------------------------
########################################################################
[WARNING] Runtime exception occurred
-3- restart_readRestart: Dimension missmatch in restart file.
-2- restart_readRestart: Multiplicity missmatch in restart file.
-1- restart_readRestart: Number of electron missmatch in restart file.
########################################################################

------------------------------------------------------------------------
 * finished run on 2024/12/10 at 16:45:21.883     
------------------------------------------------------------------------
 total:
 * wall-time:     0 d,  0 h,  0 min,  9.029 sec
 *  cpu-time:     0 d,  0 h,  0 min,  3.096 sec
 * ratio c/w:     0.343 speedup
 SCF:
 * wall-time:     0 d,  0 h,  0 min,  0.018 sec
 *  cpu-time:     0 d,  0 h,  0 min,  0.110 sec
 * ratio c/w:     6.097 speedup
 ANC optimizer:
 * wall-time:     0 d,  0 h,  0 min,  0.187 sec
 *  cpu-time:     0 d,  0 h,  0 min,  1.426 sec
 * ratio c/w:     7.625 speedup

