      -----------------------------------------------------------      
     |                   =====================                   |     
     |                           x T B                           |     
     |                   =====================                   |     
     |                         S. Grimme                         |     
     |          Mulliken Center for Theoretical Chemistry        |     
     |                    University of Bonn                     |     
      -----------------------------------------------------------      

   * xtb version 6.6.0 (conda-forge) compiled by 'runner@Mac-1676020848589.local' on 2023-02-10

   xtb is free software: you can redistribute it and/or modify it under
   the terms of the GNU Lesser General Public License as published by
   the Free Software Foundation, either version 3 of the License, or
   (at your option) any later version.
   
   xtb is distributed in the hope that it will be useful,
   but WITHOUT ANY WARRANTY; without even the implied warranty of
   MERCHANTABILITY or FITNESS FOR A PARTICULAR PURPOSE.  See the
   GNU Lesser General Public License for more details.
   
   Cite this work as:
   * C. Bannwarth, E. Caldeweyher, S. Ehlert, A. Hansen, P. Pracht,
     J. Seibert, S. Spicher, S. Grimme, WIREs Comput. Mol. Sci., 2020, 11,
     e01493. DOI: 10.1002/wcms.1493
   
   for GFN2-xTB:
   * C. Bannwarth, S. Ehlert and S. Grimme., J. Chem. Theory Comput., 2019,
     15, 1652-1671. DOI: 10.1021/acs.jctc.8b01176
   for GFN1-xTB:
   * S. Grimme, C. Bannwarth, P. Shushkov, J. Chem. Theory Comput., 2017,
     13, 1989-2009. DOI: 10.1021/acs.jctc.7b00118
   for GFN0-xTB:
   * P. Pracht, E. Caldeweyher, S. Ehlert, S. Grimme, ChemRxiv, 2019, preprint.
     DOI: 10.26434/chemrxiv.8326202.v1
   for GFN-FF:
   * S. Spicher and S. Grimme, Angew. Chem. Int. Ed., 2020, 59, 15665-15673.
     DOI: 10.1002/anie.202004239
   
   for ALPB and GBSA implicit solvation:
   * S. Ehlert, M. Stahn, S. Spicher, S. Grimme, J. Chem. Theory Comput.,
     2021, 17, 4250-4261. DOI: 10.1021/acs.jctc.1c00471
   
   for DFT-D4:
   * E. Caldeweyher, C. Bannwarth and S. Grimme, J. Chem. Phys., 2017,
     147, 034112. DOI: 10.1063/1.4993215
   * E. Caldeweyher, S. Ehlert, A. Hansen, H. Neugebauer, S. Spicher,
     C. Bannwarth and S. Grimme, J. Chem. Phys., 2019, 150, 154122.
     DOI: 10.1063/1.5090222
   * E. Caldeweyher, J.-M. Mewes, S. Ehlert and S. Grimme, Phys. Chem. Chem. Phys.
     2020, 22, 8499-8512. DOI: 10.1039/D0CP00502A
   
   for sTDA-xTB:
   * S. Grimme and C. Bannwarth, J. Chem. Phys., 2016, 145, 054103.
     DOI: 10.1063/1.4959605
   
   in the mass-spec context:
   * V. Asgeirsson, C. Bauer and S. Grimme, Chem. Sci., 2017, 8, 4879.
     DOI: 10.1039/c7sc00601b
   * J. Koopman and S. Grimme, ACS Omega 2019, 4, 12, 15120-15133.
     DOI: 10.1021/acsomega.9b02011
   
   for metadynamics refer to:
   * S. Grimme, J. Chem. Theory Comput., 2019, 155, 2847-2862
     DOI: 10.1021/acs.jctc.9b00143
   
   for SPH calculations refer to:
   * S. Spicher and S. Grimme, J. Chem. Theory Comput., 2021, 17, 1701-1714
     DOI: 10.1021/acs.jctc.0c01306
   
   with help from (in alphabetical order)
   P. Atkinson, C. Bannwarth, F. Bohle, G. Brandenburg, E. Caldeweyher
   M. Checinski, S. Dohm, S. Ehlert, S. Ehrlich, I. Gerasimov, C. Hölzer
   A. Katbashev, J. Koopman, C. Lavigne, S. Lehtola, F. März, M. Müller,
   F. Musil, H. Neugebauer, J. Pisarek, C. Plett, P. Pracht, F. Pultar,
   J. Seibert, P. Shushkov, S. Spicher, M. Stahn, M. Steiner, T. Strunk,
   J. Stückrath, T. Rose, and J. Unsleber
   
 * started run on 2024/12/03 at 16:15:42.937     

           -------------------------------------------------
          |                Calculation Setup                |
           -------------------------------------------------

          program call               : xtb aspirin.xyz --opt --gfn2
          coordinate file            : aspirin.xyz
          omp threads                :                     8

   ID    Z sym.   atoms
    1    6 C      1, 2, 5-11
    2    8 O      3, 4, 12, 13
    3    1 H      14-21

           -------------------------------------------------
          |                 G F N 2 - x T B                 |
           -------------------------------------------------

        Reference                      10.1021/acs.jctc.8b01176
      * Hamiltonian:
        H0-scaling (s, p, d)           1.850000    2.230000    2.230000
        zeta-weighting                 0.500000
      * Dispersion:
        s8                             2.700000
        a1                             0.520000
        a2                             5.000000
        s9                             5.000000
      * Repulsion:
        kExp                           1.500000    1.000000
        rExp                           1.000000
      * Coulomb:
        alpha                          2.000000
        third order                    shell-resolved
        anisotropic                    true
        a3                             3.000000
        a5                             4.000000
        cn-shift                       1.200000
        cn-exp                         4.000000
        max-rad                        5.000000


          ...................................................
          :                      SETUP                      :
          :.................................................:
          :  # basis functions                  60          :
          :  # atomic orbitals                  60          :
          :  # shells                           34          :
          :  # electrons                        68          :
          :  max. iterations                   250          :
          :  Hamiltonian                  GFN2-xTB          :
          :  restarted?                      false          :
          :  GBSA solvation                  false          :
          :  PC potential                    false          :
          :  electronic temp.          300.0000000     K    :
          :  accuracy                    1.0000000          :
          :  -> integral cutoff          0.2500000E+02      :
          :  -> integral neglect         0.1000000E-07      :
          :  -> SCF convergence          0.1000000E-05 Eh   :
          :  -> wf. convergence          0.1000000E-03 e    :
          :  Broyden damping             0.4000000          :
          ...................................................

 iter      E             dE          RMSdq      gap      omega  full diag
   1    -39.9182201 -0.399182E+02  0.529E+00    3.45       0.0  T
   2    -39.9968378 -0.786177E-01  0.281E+00    3.02       1.0  T
   3    -40.0024984 -0.566060E-02  0.172E+00    3.37       1.0  T
   4    -40.0152111 -0.127128E-01  0.267E-01    3.23       1.0  T
   5    -40.0158541 -0.642925E-03  0.112E-01    3.25       1.0  T
   6    -40.0159546 -0.100543E-03  0.508E-02    3.26       1.0  T
   7    -40.0159645 -0.987133E-05  0.140E-02    3.25       1.6  T
   8    -40.0159651 -0.673530E-06  0.652E-03    3.25       3.3  T
   9    -40.0159654 -0.271278E-06  0.256E-03    3.25       8.5  T
  10    -40.0159654 -0.274605E-07  0.992E-04    3.25      22.0  T
  11    -40.0159654 -0.746389E-08  0.576E-04    3.25      37.9  T

   *** convergence criteria satisfied after 11 iterations ***

         #    Occupation            Energy/Eh            Energy/eV
      -------------------------------------------------------------
         1        2.0000           -0.7370490             -20.0561
       ...           ...                  ...                  ...
        28        2.0000           -0.4652963             -12.6614
        29        2.0000           -0.4610639             -12.5462
        30        2.0000           -0.4517256             -12.2921
        31        2.0000           -0.4301104             -11.7039
        32        2.0000           -0.4215573             -11.4712
        33        2.0000           -0.4151975             -11.2981
        34        2.0000           -0.4124211             -11.2225 (HOMO)
        35                         -0.2928381              -7.9685 (LUMO)
        36                         -0.2662124              -7.2440
        37                         -0.2390353              -6.5045
        38                         -0.2092826              -5.6949
        39                         -0.1147519              -3.1226
       ...                                ...                  ...
        60                          0.5981263              16.2758
      -------------------------------------------------------------
                  HL-Gap            0.1195829 Eh            3.2540 eV
             Fermi-level           -0.3526296 Eh           -9.5955 eV

 SCC (total)                   0 d,  0 h,  0 min,  0.054 sec
 SCC setup                      ...        0 min,  0.002 sec (  4.608%)
 Dispersion                     ...        0 min,  0.001 sec (  1.139%)
 classical contributions        ...        0 min,  0.000 sec (  0.631%)
 integral evaluation            ...        0 min,  0.002 sec (  3.388%)
 iterations                     ...        0 min,  0.045 sec ( 82.485%)
 molecular gradient             ...        0 min,  0.004 sec (  6.543%)
 printout                       ...        0 min,  0.001 sec (  1.161%)

         :::::::::::::::::::::::::::::::::::::::::::::::::::::
         ::                     SUMMARY                     ::
         :::::::::::::::::::::::::::::::::::::::::::::::::::::
         :: total energy             -39.597840381054 Eh    ::
         :: gradient norm              0.166631201744 Eh/a0 ::
         :: HOMO-LUMO gap              3.254016722307 eV    ::
         ::.................................................::
         :: SCC energy               -40.015965444547 Eh    ::
         :: -> isotropic ES            0.098623989092 Eh    ::
         :: -> anisotropic ES         -0.001113547072 Eh    ::
         :: -> anisotropic XC          0.008068647240 Eh    ::
         :: -> dispersion             -0.017887041622 Eh    ::
         :: repulsion energy           0.418089463735 Eh    ::
         :: add. restraining           0.000000000000 Eh    ::
         :: total charge              -0.000000000000 e     ::
         :::::::::::::::::::::::::::::::::::::::::::::::::::::

      ----------------------------------------------------------- 
     |                   =====================                   |
     |                        A N C O P T                        |
     |                   =====================                   |
     |               Approximate Normal Coordinate               |
     |                Rational Function Optimizer                |
      ----------------------------------------------------------- 

          ...................................................
          :                      SETUP                      :
          :.................................................:
          :   optimization level            normal          :
          :   max. optcycles                   200          :
          :   ANC micro-cycles                  20          :
          :   degrees of freedom                57          :
          :.................................................:
          :   RF solver                   davidson          :
          :   write xtbopt.log                true          :
          :   linear?                        false          :
          :   energy convergence         0.5000000E-05 Eh   :
          :   grad. convergence          0.1000000E-02 Eh/α :
          :   maxmium RF displ.          1.0000000          :
          :   Hlow (freq-cutoff)         0.1000000E-01      :
          :   Hmax (freq-cutoff)         5.0000000          :
          :   S6 in model hess.         20.0000000          :
          ...................................................

generating ANC from model Hessian ...
Using Lindh-Hessian (1995)
 Shifting diagonal of input Hessian by    8.4321382740782259E-003
 Lowest  eigenvalues of input Hessian
    0.000000    0.000000    0.000000    0.000000    0.000000    0.000000
    0.010000    0.010688    0.010868    0.012060    0.015993    0.017048
    0.020660    0.024799    0.027494    0.029435    0.035717    0.040595
 Highest eigenvalues
    1.737389    1.808984    1.937542    1.945459    2.028281    2.083313


........................................................................
.............................. CYCLE    1 ..............................
........................................................................

 iter      E             dE          RMSdq      gap      omega  full diag
   1    -40.0159654 -0.400160E+02  0.183E-04    3.25       0.0  T
   2    -40.0159654 -0.876028E-10  0.110E-04    3.25     198.6  T
   3    -40.0159654 -0.184883E-10  0.749E-05    3.25     291.3  T
     SCC iter.                  ...        0 min,  0.004 sec
     gradient                   ...        0 min,  0.002 sec
 * total energy  :   -39.5978404 Eh     change       -0.2564846E-08 Eh
   gradient norm :     0.1666424 Eh/α   predicted     0.0000000E+00 (-100.00%)
   displ. norm   :     0.3886574 α      lambda       -0.3130795E-01
   maximum displ.:     0.1571010 α      in ANC's #13, #24, #11, ...

........................................................................
.............................. CYCLE    2 ..............................
........................................................................

 iter      E             dE          RMSdq      gap      omega  full diag
   1    -40.0809376 -0.400809E+02  0.304E-01    3.44       0.0  T
   2    -40.0814050 -0.467414E-03  0.186E-01    3.45       1.0  T
   3    -40.0814359 -0.309130E-04  0.988E-02    3.46       1.0  T
   4    -40.0814601 -0.241704E-04  0.187E-02    3.45       1.2  T
   5    -40.0814622 -0.205750E-05  0.784E-03    3.46       2.8  T
   6    -40.0814626 -0.453244E-06  0.410E-03    3.46       5.3  T
   7    -40.0814627 -0.114867E-06  0.123E-03    3.46      17.8  T
   8    -40.0814627 -0.101947E-08  0.534E-04    3.46      40.9  T
   9    -40.0814627 -0.880696E-09  0.177E-04    3.46     123.5  T
     SCC iter.                  ...        0 min,  0.011 sec
     gradient                   ...        0 min,  0.002 sec
 * total energy  :   -39.6201715 Eh     change       -0.2233114E-01 Eh
   gradient norm :     0.0584055 Eh/α   predicted    -0.1804151E-01 ( -19.21%)
   displ. norm   :     0.4090744 α      lambda       -0.1091604E-01
   maximum displ.:     0.2103614 α      in ANC's #10, #11, #24, ...

........................................................................
.............................. CYCLE    3 ..............................
........................................................................

 iter      E             dE          RMSdq      gap      omega  full diag
   1    -40.1161483 -0.401161E+02  0.245E-01    3.55       0.0  T
   2    -40.1163079 -0.159585E-03  0.148E-01    3.56       1.0  T
   3    -40.1163033  0.462744E-05  0.636E-02    3.56       1.0  T
   4    -40.1163217 -0.184219E-04  0.142E-02    3.56       1.5  T
   5    -40.1163236 -0.190362E-05  0.554E-03    3.56       3.9  T
   6    -40.1163239 -0.291918E-06  0.241E-03    3.56       9.1  T
   7    -40.1163240 -0.383076E-07  0.667E-04    3.56      32.7  T
   8    -40.1163240 -0.398508E-09  0.305E-04    3.56      71.6  T
     SCC iter.                  ...        0 min,  0.008 sec
     gradient                   ...        0 min,  0.002 sec
 * total energy  :   -39.6262692 Eh     change       -0.6097699E-02 Eh
   gradient norm :     0.0222888 Eh/α   predicted    -0.6373021E-02 (   4.52%)
   displ. norm   :     0.2344882 α      lambda       -0.1731404E-02
   maximum displ.:     0.1460499 α      in ANC's #10, #3, #11, ...

........................................................................
.............................. CYCLE    4 ..............................
........................................................................

 iter      E             dE          RMSdq      gap      omega  full diag
   1    -40.1171900 -0.401172E+02  0.109E-01    3.55       0.0  T
   2    -40.1172113 -0.212604E-04  0.655E-02    3.55       1.0  T
   3    -40.1172109  0.367569E-06  0.186E-02    3.55       1.2  T
   4    -40.1172111 -0.170025E-06  0.606E-03    3.55       3.6  T
   5    -40.1172120 -0.856795E-06  0.162E-03    3.55      13.4  T
   6    -40.1172120 -0.417274E-08  0.762E-04    3.55      28.6  T
   7    -40.1172120 -0.150395E-08  0.200E-04    3.55     109.3  T
     SCC iter.                  ...        0 min,  0.009 sec
     gradient                   ...        0 min,  0.002 sec
 * total energy  :   -39.6272594 Eh     change       -0.9901512E-03 Eh
   gradient norm :     0.0090970 Eh/α   predicted    -0.9132989E-03 (  -7.76%)
   displ. norm   :     0.2439154 α      lambda       -0.7140665E-03
   maximum displ.:     0.1764692 α      in ANC's #3, #1, #10, ...

........................................................................
.............................. CYCLE    5 ..............................
........................................................................

 iter      E             dE          RMSdq      gap      omega  full diag
   1    -40.1166905 -0.401167E+02  0.922E-02    3.56       0.0  T
   2    -40.1166992 -0.861867E-05  0.561E-02    3.56       1.0  T
   3    -40.1166974  0.176218E-05  0.137E-02    3.56       1.6  T
   4    -40.1166993 -0.189653E-05  0.581E-03    3.56       3.8  T
   5    -40.1167000 -0.723412E-06  0.165E-03    3.56      13.2  T
   6    -40.1167000 -0.180485E-08  0.752E-04    3.56      29.0  T
   7    -40.1167000 -0.304386E-08  0.176E-04    3.56     124.2  T
     SCC iter.                  ...        0 min,  0.008 sec
     gradient                   ...        0 min,  0.002 sec
 * total energy  :   -39.6277137 Eh     change       -0.4543750E-03 Eh
   gradient norm :     0.0063984 Eh/α   predicted    -0.3782764E-03 ( -16.75%)
   displ. norm   :     0.2172570 α      lambda       -0.3606334E-03
   maximum displ.:     0.1582863 α      in ANC's #3, #1, #4, ...

........................................................................
.............................. CYCLE    6 ..............................
........................................................................

 iter      E             dE          RMSdq      gap      omega  full diag
   1    -40.1166405 -0.401166E+02  0.640E-02    3.57       0.0  T
   2    -40.1166417 -0.122232E-05  0.375E-02    3.57       1.0  T
   3    -40.1166413  0.488013E-06  0.792E-03    3.57       2.8  T
   4    -40.1166421 -0.808245E-06  0.218E-03    3.57      10.0  T
   5    -40.1166421 -0.296917E-07  0.119E-03    3.57      18.3  T
   6    -40.1166421 -0.279206E-08  0.469E-04    3.57      46.5  T
   7    -40.1166421 -0.115816E-08  0.124E-04    3.57     175.7  T
     SCC iter.                  ...        0 min,  0.008 sec
     gradient                   ...        0 min,  0.002 sec
 * total energy  :   -39.6279991 Eh     change       -0.2853900E-03 Eh
   gradient norm :     0.0057383 Eh/α   predicted    -0.1888348E-03 ( -33.83%)
   displ. norm   :     0.2703240 α      lambda       -0.3572273E-03
   maximum displ.:     0.1917825 α      in ANC's #3, #1, #4, ...

........................................................................
.............................. CYCLE    7 ..............................
........................................................................

 iter      E             dE          RMSdq      gap      omega  full diag
   1    -40.1167152 -0.401167E+02  0.765E-02    3.57       0.0  T
   2    -40.1167185 -0.328464E-05  0.449E-02    3.57       1.0  T
   3    -40.1167174  0.102654E-05  0.112E-02    3.57       1.9  T
   4    -40.1167189 -0.149252E-05  0.345E-03    3.57       6.3  T
   5    -40.1167191 -0.135956E-06  0.145E-03    3.57      15.1  T
   6    -40.1167191 -0.206398E-08  0.652E-04    3.57      33.5  T
   7    -40.1167191 -0.204614E-08  0.156E-04    3.57     140.0  T
     SCC iter.                  ...        0 min,  0.009 sec
     gradient                   ...        0 min,  0.002 sec
 * total energy  :   -39.6282672 Eh     change       -0.2680879E-03 Eh
   gradient norm :     0.0044143 Eh/α   predicted    -0.1916678E-03 ( -28.51%)
   displ. norm   :     0.3053173 α      lambda       -0.2730410E-03
   maximum displ.:     0.2047806 α      in ANC's #3, #1, #4, ...

........................................................................
.............................. CYCLE    8 ..............................
........................................................................

 iter      E             dE          RMSdq      gap      omega  full diag
   1    -40.1169141 -0.401169E+02  0.913E-02    3.57       0.0  T
   2    -40.1169178 -0.371066E-05  0.536E-02    3.57       1.0  T
   3    -40.1169162  0.167158E-05  0.123E-02    3.57       1.8  T
   4    -40.1169184 -0.228938E-05  0.389E-03    3.57       5.6  T
   5    -40.1169186 -0.192383E-06  0.162E-03    3.57      13.4  T
   6    -40.1169186 -0.870912E-09  0.616E-04    3.57      35.4  T
   7    -40.1169186 -0.295856E-08  0.147E-04    3.57     148.0  T
     SCC iter.                  ...        0 min,  0.007 sec
     gradient                   ...        0 min,  0.002 sec
 * total energy  :   -39.6284356 Eh     change       -0.1683906E-03 Eh
   gradient norm :     0.0044995 Eh/α   predicted    -0.1492509E-03 ( -11.37%)
   displ. norm   :     0.2218072 α      lambda       -0.1368433E-03
   maximum displ.:     0.1475009 α      in ANC's #3, #1, #4, ...

........................................................................
.............................. CYCLE    9 ..............................
........................................................................

 iter      E             dE          RMSdq      gap      omega  full diag
   1    -40.1171416 -0.401171E+02  0.743E-02    3.57       0.0  T
   2    -40.1171433 -0.175784E-05  0.439E-02    3.57       1.0  T
   3    -40.1171421  0.122498E-05  0.924E-03    3.57       2.4  T
   4    -40.1171437 -0.164769E-05  0.261E-03    3.57       8.4  T
   5    -40.1171438 -0.813153E-07  0.131E-03    3.57      16.7  T
   6    -40.1171438 -0.181949E-08  0.521E-04    3.57      41.9  T
   7    -40.1171438 -0.203588E-08  0.104E-04    3.57     209.1  T
     SCC iter.                  ...        0 min,  0.008 sec
     gradient                   ...        0 min,  0.002 sec
 * total energy  :   -39.6285168 Eh     change       -0.8123240E-04 Eh
   gradient norm :     0.0038201 Eh/α   predicted    -0.7178820E-04 ( -11.63%)
   displ. norm   :     0.1134525 α      lambda       -0.4746380E-04
   maximum displ.:     0.0690447 α      in ANC's #1, #3, #5, ...

........................................................................
.............................. CYCLE   10 ..............................
........................................................................

 iter      E             dE          RMSdq      gap      omega  full diag
   1    -40.1180532 -0.401181E+02  0.419E-02    3.57       0.0  T
   2    -40.1180541 -0.886593E-06  0.250E-02    3.57       1.0  T
   3    -40.1180536  0.479064E-06  0.674E-03    3.57       3.2  T
   4    -40.1180543 -0.683404E-06  0.143E-03    3.57      15.3  T
   5    -40.1180543 -0.263204E-07  0.759E-04    3.57      28.7  T
   6    -40.1180543 -0.309017E-08  0.358E-04    3.57      61.0  T
     SCC iter.                  ...        0 min,  0.007 sec
     gradient                   ...        0 min,  0.002 sec
 * total energy  :   -39.6285515 Eh     change       -0.3469716E-04 Eh
   gradient norm :     0.0020770 Eh/α   predicted    -0.2404201E-04 ( -30.71%)
   displ. norm   :     0.1204517 α      lambda       -0.3546269E-04
   maximum displ.:     0.0671015 α      in ANC's #1, #5, #3, ...

........................................................................
.............................. CYCLE   11 ..............................
........................................................................

 iter      E             dE          RMSdq      gap      omega  full diag
   1    -40.1183211 -0.401183E+02  0.509E-02    3.57       0.0  T
   2    -40.1183222 -0.106846E-05  0.300E-02    3.57       1.0  T
   3    -40.1183218  0.393297E-06  0.628E-03    3.57       3.5  T
   4    -40.1183224 -0.576980E-06  0.168E-03    3.57      13.0  T
   5    -40.1183224 -0.397690E-07  0.830E-04    3.57      26.3  T
   6    -40.1183224 -0.272220E-08  0.415E-04    3.57      52.6  T
     SCC iter.                  ...        0 min,  0.005 sec
     gradient                   ...        0 min,  0.002 sec
 * total energy  :   -39.6285767 Eh     change       -0.2518759E-04 Eh
   gradient norm :     0.0016181 Eh/α   predicted    -0.1799082E-04 ( -28.57%)
   displ. norm   :     0.1543720 α      lambda       -0.2633854E-04
   maximum displ.:     0.0974446 α      in ANC's #5, #2, #1, ...

........................................................................
.............................. CYCLE   12 ..............................
........................................................................

 iter      E             dE          RMSdq      gap      omega  full diag
   1    -40.1186464 -0.401186E+02  0.714E-02    3.58       0.0  T
   2    -40.1186477 -0.130338E-05  0.419E-02    3.58       1.0  T
   3    -40.1186470  0.692831E-06  0.822E-03    3.58       2.7  T
   4    -40.1186480 -0.103084E-05  0.208E-03    3.58      10.5  T
   5    -40.1186480 -0.369795E-07  0.107E-03    3.58      20.3  T
   6    -40.1186480 -0.322051E-08  0.459E-04    3.58      47.6  T
   7    -40.1186480 -0.837552E-09  0.109E-04    3.58     200.8  T
     SCC iter.                  ...        0 min,  0.006 sec
     gradient                   ...        0 min,  0.002 sec
 * total energy  :   -39.6286037 Eh     change       -0.2695104E-04 Eh
   gradient norm :     0.0027092 Eh/α   predicted    -0.1331139E-04 ( -50.61%)
   displ. norm   :     0.1001997 α      lambda       -0.2743574E-04
   maximum displ.:     0.0660819 α      in ANC's #5, #2, #4, ...

........................................................................
.............................. CYCLE   13 ..............................
........................................................................

 iter      E             dE          RMSdq      gap      omega  full diag
   1    -40.1184185 -0.401184E+02  0.471E-02    3.58       0.0  T
   2    -40.1184190 -0.466217E-06  0.277E-02    3.58       1.0  T
   3    -40.1184182  0.815762E-06  0.775E-03    3.58       2.8  T
   4    -40.1184192 -0.103933E-05  0.119E-03    3.58      18.3  T
   5    -40.1184192 -0.513192E-08  0.625E-04    3.58      34.9  T
   6    -40.1184192 -0.497700E-09  0.271E-04    3.58      80.6  T
     SCC iter.                  ...        0 min,  0.006 sec
     gradient                   ...        0 min,  0.002 sec
 * total energy  :   -39.6286279 Eh     change       -0.2419293E-04 Eh
   gradient norm :     0.0027273 Eh/α   predicted    -0.1385829E-04 ( -42.72%)
   displ. norm   :     0.2898652 α      lambda       -0.8124755E-04
   maximum displ.:     0.1830793 α      in ANC's #5, #2, #4, ...

........................................................................
.............................. CYCLE   14 ..............................
........................................................................

 iter      E             dE          RMSdq      gap      omega  full diag
   1    -40.1176184 -0.401176E+02  0.135E-01    3.60       0.0  T
   2    -40.1176217 -0.333621E-05  0.794E-02    3.60       1.0  T
   3    -40.1176160  0.575381E-05  0.211E-02    3.60       1.0  T
   4    -40.1176233 -0.733850E-05  0.323E-03    3.60       6.8  T
   5    -40.1176233 -0.349778E-07  0.169E-03    3.60      12.9  T
   6    -40.1176233 -0.247190E-08  0.736E-04    3.60      29.7  T
   7    -40.1176233 -0.395700E-08  0.182E-04    3.60     120.2  T
     SCC iter.                  ...        0 min,  0.007 sec
     gradient                   ...        0 min,  0.003 sec
 * total energy  :   -39.6286763 Eh     change       -0.4839753E-04 Eh
   gradient norm :     0.0035455 Eh/α   predicted    -0.4404085E-04 (  -9.00%)
   displ. norm   :     0.0782553 α      lambda       -0.2867230E-04
   maximum displ.:     0.0367863 α      in ANC's #3, #2, #4, ...

........................................................................
.............................. CYCLE   15 ..............................
........................................................................

 iter      E             dE          RMSdq      gap      omega  full diag
   1    -40.1185515 -0.401186E+02  0.335E-02    3.61       0.0  T
   2    -40.1185521 -0.660970E-06  0.200E-02    3.61       1.1  T
   3    -40.1185517  0.409312E-06  0.621E-03    3.61       3.5  T
   4    -40.1185523 -0.539260E-06  0.114E-03    3.61      19.2  T
   5    -40.1185523 -0.129641E-07  0.454E-04    3.61      48.0  T
   6    -40.1185523 -0.108538E-08  0.241E-04    3.61      90.4  T
     SCC iter.                  ...        0 min,  0.009 sec
     gradient                   ...        0 min,  0.002 sec
 * total energy  :   -39.6286952 Eh     change       -0.1892760E-04 Eh
   gradient norm :     0.0023081 Eh/α   predicted    -0.1442741E-04 ( -23.78%)
   displ. norm   :     0.1353400 α      lambda       -0.3259664E-04
   maximum displ.:     0.0874310 α      in ANC's #4, #5, #2, ...

........................................................................
.............................. CYCLE   16 ..............................
........................................................................

 iter      E             dE          RMSdq      gap      omega  full diag
   1    -40.1180392 -0.401180E+02  0.630E-02    3.61       0.0  T
   2    -40.1180409 -0.175424E-05  0.371E-02    3.61       1.0  T
   3    -40.1180398  0.109526E-05  0.949E-03    3.61       2.3  T
   4    -40.1180412 -0.141255E-05  0.224E-03    3.61       9.7  T
   5    -40.1180413 -0.708566E-07  0.931E-04    3.61      23.4  T
   6    -40.1180413 -0.195697E-08  0.495E-04    3.61      44.1  T
     SCC iter.                  ...        0 min,  0.007 sec
     gradient                   ...        0 min,  0.003 sec
 * total energy  :   -39.6287165 Eh     change       -0.2129355E-04 Eh
   gradient norm :     0.0024238 Eh/α   predicted    -0.1660002E-04 ( -22.04%)
   displ. norm   :     0.0660413 α      lambda       -0.2577069E-04
   maximum displ.:     0.0496217 α      in ANC's #4, #1, #3, ...

........................................................................
.............................. CYCLE   17 ..............................
........................................................................

 iter      E             dE          RMSdq      gap      omega  full diag
   1    -40.1187370 -0.401187E+02  0.305E-02    3.62       0.0  T
   2    -40.1187374 -0.406533E-06  0.179E-02    3.62       1.2  T
   3    -40.1187371  0.242312E-06  0.429E-03    3.62       5.1  T
   4    -40.1187374 -0.301989E-06  0.983E-04    3.62      22.2  T
   5    -40.1187375 -0.171430E-07  0.381E-04    3.62      57.3  T
     SCC iter.                  ...        0 min,  0.006 sec
     gradient                   ...        0 min,  0.002 sec
 * total energy  :   -39.6287355 Eh     change       -0.1899601E-04 Eh
   gradient norm :     0.0019744 Eh/α   predicted    -0.1294384E-04 ( -31.86%)
   displ. norm   :     0.2261130 α      lambda       -0.3425608E-04
   maximum displ.:     0.1601382 α      in ANC's #4, #5, #3, ...

........................................................................
.............................. CYCLE   18 ..............................
........................................................................

 iter      E             dE          RMSdq      gap      omega  full diag
   1    -40.1179548 -0.401180E+02  0.930E-02    3.62       0.0  T
   2    -40.1179564 -0.160571E-05  0.547E-02    3.62       1.0  T
   3    -40.1179554  0.973437E-06  0.779E-03    3.62       2.8  T
   4    -40.1179568 -0.137554E-05  0.276E-03    3.62       7.9  T
   5    -40.1179569 -0.100917E-06  0.130E-03    3.62      16.8  T
   6    -40.1179569 -0.103131E-08  0.401E-04    3.62      54.5  T
   7    -40.1179569 -0.165895E-08  0.103E-04    3.62     212.1  T
     SCC iter.                  ...        0 min,  0.008 sec
     gradient                   ...        0 min,  0.002 sec
 * total energy  :   -39.6287588 Eh     change       -0.2334656E-04 Eh
   gradient norm :     0.0040342 Eh/α   predicted    -0.1751865E-04 ( -24.96%)
   displ. norm   :     0.0671774 α      lambda       -0.3437215E-04
   maximum displ.:     0.0451135 α      in ANC's #3, #2, #1, ...

........................................................................
.............................. CYCLE   19 ..............................
........................................................................

 iter      E             dE          RMSdq      gap      omega  full diag
   1    -40.1190324 -0.401190E+02  0.305E-02    3.62       0.0  T
   2    -40.1190329 -0.552500E-06  0.179E-02    3.62       1.2  T
   3    -40.1190325  0.393320E-06  0.620E-03    3.62       3.5  T
   4    -40.1190330 -0.514240E-06  0.118E-03    3.62      18.5  T
   5    -40.1190330 -0.176396E-07  0.421E-04    3.62      51.9  T
   6    -40.1190330 -0.499085E-09  0.236E-04    3.62      92.4  T
     SCC iter.                  ...        0 min,  0.007 sec
     gradient                   ...        0 min,  0.002 sec
 * total energy  :   -39.6287799 Eh     change       -0.2108133E-04 Eh
   gradient norm :     0.0028400 Eh/α   predicted    -0.1726800E-04 ( -18.09%)
   displ. norm   :     0.0877406 α      lambda       -0.3463528E-04
   maximum displ.:     0.0650693 α      in ANC's #3, #5, #4, ...

........................................................................
.............................. CYCLE   20 ..............................
........................................................................

 iter      E             dE          RMSdq      gap      omega  full diag
   1    -40.1192073 -0.401192E+02  0.320E-02    3.62       0.0  T
   2    -40.1192078 -0.425989E-06  0.189E-02    3.62       1.2  T
   3    -40.1192075  0.305162E-06  0.515E-03    3.62       4.2  T
   4    -40.1192079 -0.417887E-06  0.994E-04    3.62      22.0  T
   5    -40.1192079 -0.119728E-07  0.542E-04    3.62      40.3  T
     SCC iter.                  ...        0 min,  0.006 sec
     gradient                   ...        0 min,  0.002 sec
 * total energy  :   -39.6288069 Eh     change       -0.2695495E-04 Eh
   gradient norm :     0.0022881 Eh/α   predicted    -0.1745546E-04 ( -35.24%)
   displ. norm   :     0.2220183 α      lambda       -0.6752662E-04
   maximum displ.:     0.1327432 α      in ANC's #3, #5, #4, ...
 * RMSD in coord.:     0.5640237 α      energy gain  -0.3096649E-01 Eh

generating ANC from model Hessian ...
Using Lindh-Hessian (1995)
 Shifting diagonal of input Hessian by    8.1525751470216904E-003
 Lowest  eigenvalues of input Hessian
    0.000000    0.000000    0.000000    0.000000    0.000000    0.000000
    0.010000    0.010646    0.011349    0.012627    0.016774    0.019029
    0.022428    0.028040    0.029684    0.031891    0.040191    0.048649
 Highest eigenvalues
    1.855681    1.899713    2.044503    2.089775    2.382227    2.394394


........................................................................
.............................. CYCLE   21 ..............................
........................................................................

 iter      E             dE          RMSdq      gap      omega  full diag
   1    -40.1181430 -0.401181E+02  0.854E-02    3.62       0.0  T
   2    -40.1181448 -0.176688E-05  0.502E-02    3.62       1.0  T
   3    -40.1181438  0.971639E-06  0.952E-03    3.62       2.3  T
   4    -40.1181453 -0.151090E-05  0.281E-03    3.62       7.8  T
   5    -40.1181454 -0.643133E-07  0.151E-03    3.62      14.5  T
   6    -40.1181454 -0.242940E-08  0.518E-04    3.62      42.1  T
   7    -40.1181454 -0.227345E-08  0.113E-04    3.62     192.6  T
     SCC iter.                  ...        0 min,  0.008 sec
     gradient                   ...        0 min,  0.002 sec
 * total energy  :   -39.6288423 Eh     change       -0.3546353E-04 Eh
   gradient norm :     0.0046083 Eh/α   predicted     0.0000000E+00 (-100.00%)
   displ. norm   :     0.0252123 α      lambda       -0.2682279E-04
   maximum displ.:     0.0146734 α      in ANC's #4, #3, #8, ...

........................................................................
.............................. CYCLE   22 ..............................
........................................................................

 iter      E             dE          RMSdq      gap      omega  full diag
   1    -40.1190063 -0.401190E+02  0.149E-02    3.62       0.0  T
   2    -40.1190070 -0.652679E-06  0.862E-03    3.62       2.5  T
   3    -40.1190069  0.165194E-07  0.373E-03    3.62       5.8  T
   4    -40.1190070 -0.400946E-07  0.120E-03    3.62      18.2  T
   5    -40.1190070 -0.195928E-07  0.277E-04    3.62      78.9  T
   6    -40.1190070 -0.427477E-09  0.157E-04    3.62     139.0  T
     SCC iter.                  ...        0 min,  0.006 sec
     gradient                   ...        0 min,  0.002 sec
 * total energy  :   -39.6288658 Eh     change       -0.2350814E-04 Eh
   gradient norm :     0.0014793 Eh/α   predicted    -0.1694181E-04 ( -27.93%)
   displ. norm   :     0.0552297 α      lambda       -0.1798325E-04
   maximum displ.:     0.0306275 α      in ANC's #4, #3, #8, ...

........................................................................
.............................. CYCLE   23 ..............................
........................................................................

 iter      E             dE          RMSdq      gap      omega  full diag
   1    -40.1196819 -0.401197E+02  0.275E-02    3.62       0.0  T
   2    -40.1196829 -0.101788E-05  0.161E-02    3.62       1.4  T
   3    -40.1196827  0.197840E-06  0.561E-03    3.62       3.9  T
   4    -40.1196830 -0.250315E-06  0.164E-03    3.62      13.3  T
   5    -40.1196830 -0.499956E-07  0.356E-04    3.62      61.3  T
   6    -40.1196830 -0.740698E-09  0.211E-04    3.62     103.5  T
     SCC iter.                  ...        0 min,  0.007 sec
     gradient                   ...        0 min,  0.003 sec
 * total energy  :   -39.6288803 Eh     change       -0.1447774E-04 Eh
   gradient norm :     0.0021023 Eh/α   predicted    -0.9005290E-05 ( -37.80%)
   displ. norm   :     0.0345815 α      lambda       -0.1032793E-04
   maximum displ.:     0.0193530 α      in ANC's #3, #4, #8, ...

........................................................................
.............................. CYCLE   24 ..............................
........................................................................

 iter      E             dE          RMSdq      gap      omega  full diag
   1    -40.1195548 -0.401196E+02  0.119E-02    3.62       0.0  T
   2    -40.1195548 -0.367384E-07  0.702E-03    3.62       3.1  T
   3    -40.1195548  0.444379E-07  0.160E-03    3.62      13.7  T
   4    -40.1195548 -0.558221E-07  0.348E-04    3.62      62.8  T
   5    -40.1195548 -0.138949E-08  0.175E-04    3.62     124.4  T
     SCC iter.                  ...        0 min,  0.006 sec
     gradient                   ...        0 min,  0.003 sec
 * total energy  :   -39.6288896 Eh     change       -0.9296174E-05 Eh
   gradient norm :     0.0019210 Eh/α   predicted    -0.5199139E-05 ( -44.07%)
   displ. norm   :     0.2814510 α      lambda       -0.5250169E-04
   maximum displ.:     0.1544249 α      in ANC's #3, #8, #4, ...

........................................................................
.............................. CYCLE   25 ..............................
........................................................................

 iter      E             dE          RMSdq      gap      omega  full diag
   1    -40.1172912 -0.401173E+02  0.943E-02    3.60       0.0  T
   2    -40.1172937 -0.243979E-05  0.560E-02    3.61       1.0  T
   3    -40.1172908  0.293020E-05  0.129E-02    3.61       1.7  T
   4    -40.1172945 -0.373074E-05  0.293E-03    3.61       7.4  T
   5    -40.1172946 -0.752282E-07  0.150E-03    3.61      14.5  T
   6    -40.1172946 -0.683125E-08  0.634E-04    3.61      34.4  T
   7    -40.1172946 -0.178851E-08  0.199E-04    3.61     109.8  T
     SCC iter.                  ...        0 min,  0.009 sec
     gradient                   ...        0 min,  0.003 sec
 * total energy  :   -39.6289006 Eh     change       -0.1098677E-04 Eh
   gradient norm :     0.0054312 Eh/α   predicted    -0.2719756E-04 ( 147.55%)
   displ. norm   :     0.0734974 α      lambda       -0.4869810E-04
   maximum displ.:     0.0418400 α      in ANC's #3, #4, #8, ...

........................................................................
.............................. CYCLE   26 ..............................
........................................................................

 iter      E             dE          RMSdq      gap      omega  full diag
   1    -40.1185265 -0.401185E+02  0.289E-02    3.61       0.0  T
   2    -40.1185270 -0.576425E-06  0.169E-02    3.61       1.3  T
   3    -40.1185268  0.231478E-06  0.472E-03    3.61       4.6  T
   4    -40.1185271 -0.307661E-06  0.123E-03    3.61      17.7  T
   5    -40.1185271 -0.261134E-07  0.495E-04    3.61      44.1  T
   6    -40.1185271 -0.125110E-08  0.254E-04    3.61      86.0  T
     SCC iter.                  ...        0 min,  0.008 sec
     gradient                   ...        0 min,  0.003 sec
 * total energy  :   -39.6289300 Eh     change       -0.2937755E-04 Eh
   gradient norm :     0.0024694 Eh/α   predicted    -0.2448316E-04 ( -16.66%)
   displ. norm   :     0.0280775 α      lambda       -0.1885604E-04
   maximum displ.:     0.0147406 α      in ANC's #5, #6, #7, ...

........................................................................
.............................. CYCLE   27 ..............................
........................................................................

 iter      E             dE          RMSdq      gap      omega  full diag
   1    -40.1189785 -0.401190E+02  0.139E-02    3.61       0.0  T
   2    -40.1189787 -0.145362E-06  0.812E-03    3.61       2.7  T
   3    -40.1189786  0.377536E-07  0.236E-03    3.61       9.3  T
   4    -40.1189787 -0.542008E-07  0.614E-04    3.61      35.5  T
   5    -40.1189787 -0.476955E-08  0.235E-04    3.61      93.0  T
     SCC iter.                  ...        0 min,  0.007 sec
     gradient                   ...        0 min,  0.003 sec
 * total energy  :   -39.6289456 Eh     change       -0.1563413E-04 Eh
   gradient norm :     0.0012831 Eh/α   predicted    -0.9463854E-05 ( -39.47%)
   displ. norm   :     0.2060087 α      lambda       -0.4460601E-04
   maximum displ.:     0.0962324 α      in ANC's #3, #6, #5, ...

........................................................................
.............................. CYCLE   28 ..............................
........................................................................

 iter      E             dE          RMSdq      gap      omega  full diag
   1    -40.1190573 -0.401191E+02  0.688E-02    3.61       0.0  T
   2    -40.1190586 -0.132867E-05  0.407E-02    3.61       1.0  T
   3    -40.1190580  0.594342E-06  0.848E-03    3.61       2.6  T
   4    -40.1190589 -0.888228E-06  0.232E-03    3.61       9.4  T
   5    -40.1190589 -0.408400E-07  0.108E-03    3.61      20.2  T
   6    -40.1190589 -0.856971E-09  0.475E-04    3.61      46.0  T
   7    -40.1190589 -0.140982E-08  0.102E-04    3.61     213.3  T
     SCC iter.                  ...        0 min,  0.011 sec
     gradient                   ...        0 min,  0.004 sec
 * total energy  :   -39.6289902 Eh     change       -0.4455121E-04 Eh
   gradient norm :     0.0021031 Eh/α   predicted    -0.2273257E-04 ( -48.97%)
   displ. norm   :     0.1667858 α      lambda       -0.3000537E-04
   maximum displ.:     0.0844214 α      in ANC's #3, #6, #8, ...

........................................................................
.............................. CYCLE   29 ..............................
........................................................................

 iter      E             dE          RMSdq      gap      omega  full diag
   1    -40.1179006 -0.401179E+02  0.493E-02    3.60       0.0  T
   2    -40.1179012 -0.612893E-06  0.292E-02    3.60       1.0  T
   3    -40.1179007  0.474565E-06  0.646E-03    3.60       3.4  T
   4    -40.1179014 -0.684352E-06  0.165E-03    3.60      13.3  T
   5    -40.1179014 -0.138992E-07  0.854E-04    3.60      25.5  T
   6    -40.1179014 -0.164238E-08  0.310E-04    3.60      70.5  T
     SCC iter.                  ...        0 min,  0.010 sec
     gradient                   ...        0 min,  0.004 sec
 * total energy  :   -39.6290035 Eh     change       -0.1333967E-04 Eh
   gradient norm :     0.0042290 Eh/α   predicted    -0.1542183E-04 (  15.61%)
   displ. norm   :     0.0130631 α      lambda       -0.2136904E-04
   maximum displ.:     0.0050718 α      in ANC's #4, #2, #1, ...

........................................................................
.............................. CYCLE   30 ..............................
........................................................................

 iter      E             dE          RMSdq      gap      omega  full diag
   1    -40.1185029 -0.401185E+02  0.856E-03    3.60       0.0  T
   2    -40.1185031 -0.222983E-06  0.467E-03    3.60       4.7  T
   3    -40.1185031 -0.345184E-08  0.196E-03    3.60      11.1  T
   4    -40.1185031 -0.334740E-08  0.417E-04    3.60      52.4  T
   5    -40.1185031 -0.228458E-08  0.180E-04    3.60     121.2  T
     SCC iter.                  ...        0 min,  0.011 sec
     gradient                   ...        0 min,  0.004 sec
 * total energy  :   -39.6290196 Eh     change       -0.1609705E-04 Eh
   gradient norm :     0.0021191 Eh/α   predicted    -0.1068677E-04 ( -33.61%)
   displ. norm   :     0.1344066 α      lambda       -0.3195828E-04
   maximum displ.:     0.0589391 α      in ANC's #8, #3, #6, ...

........................................................................
.............................. CYCLE   31 ..............................
........................................................................

 iter      E             dE          RMSdq      gap      omega  full diag
   1    -40.1186481 -0.401186E+02  0.372E-02    3.60       0.0  T
   2    -40.1186489 -0.800945E-06  0.220E-02    3.60       1.0  T
   3    -40.1186487  0.237373E-06  0.550E-03    3.60       4.0  T
   4    -40.1186490 -0.333338E-06  0.160E-03    3.60      13.6  T
   5    -40.1186491 -0.360069E-07  0.635E-04    3.60      34.4  T
   6    -40.1186491 -0.105042E-08  0.314E-04    3.60      69.5  T
     SCC iter.                  ...        0 min,  0.012 sec
     gradient                   ...        0 min,  0.005 sec
 * total energy  :   -39.6290415 Eh     change       -0.2193135E-04 Eh
   gradient norm :     0.0014911 Eh/α   predicted    -0.1628236E-04 ( -25.76%)
   displ. norm   :     0.1670317 α      lambda       -0.1664551E-04
   maximum displ.:     0.0747412 α      in ANC's #6, #8, #3, ...

........................................................................
.............................. CYCLE   32 ..............................
........................................................................

 iter      E             dE          RMSdq      gap      omega  full diag
   1    -40.1185458 -0.401185E+02  0.423E-02    3.59       0.0  T
   2    -40.1185463 -0.440138E-06  0.252E-02    3.59       1.0  T
   3    -40.1185461  0.212022E-06  0.462E-03    3.59       4.7  T
   4    -40.1185464 -0.307687E-06  0.141E-03    3.59      15.4  T
   5    -40.1185464 -0.182839E-07  0.607E-04    3.59      35.9  T
   6    -40.1185464 -0.664450E-09  0.244E-04    3.59      89.4  T
     SCC iter.                  ...        0 min,  0.012 sec
     gradient                   ...        0 min,  0.004 sec
 * total energy  :   -39.6290561 Eh     change       -0.1455965E-04 Eh
   gradient norm :     0.0025832 Eh/α   predicted    -0.8428378E-05 ( -42.11%)
   displ. norm   :     0.0570944 α      lambda       -0.2113309E-04
   maximum displ.:     0.0317689 α      in ANC's #1, #6, #2, ...

........................................................................
.............................. CYCLE   33 ..............................
........................................................................

 iter      E             dE          RMSdq      gap      omega  full diag
   1    -40.1196273 -0.401196E+02  0.207E-02    3.60       0.0  T
   2    -40.1196277 -0.323940E-06  0.120E-02    3.60       1.8  T
   3    -40.1196276  0.390152E-07  0.297E-03    3.60       7.4  T
   4    -40.1196277 -0.732951E-07  0.750E-04    3.60      29.1  T
   5    -40.1196277 -0.638207E-08  0.382E-04    3.60      57.1  T
     SCC iter.                  ...        0 min,  0.010 sec
     gradient                   ...        0 min,  0.004 sec
 * total energy  :   -39.6290664 Eh     change       -0.1029907E-04 Eh
   gradient norm :     0.0022464 Eh/α   predicted    -0.1060119E-04 (   2.93%)
   displ. norm   :     0.1158512 α      lambda       -0.1618797E-04
   maximum displ.:     0.0589642 α      in ANC's #6, #3, #8, ...

........................................................................
.............................. CYCLE   34 ..............................
........................................................................

 iter      E             dE          RMSdq      gap      omega  full diag
   1    -40.1190530 -0.401191E+02  0.294E-02    3.59       0.0  T
   2    -40.1190533 -0.272482E-06  0.176E-02    3.59       1.2  T
   3    -40.1190532  0.597396E-07  0.283E-03    3.59       7.7  T
   4    -40.1190533 -0.830051E-07  0.104E-03    3.59      21.0  T
   5    -40.1190533 -0.132025E-07  0.358E-04    3.59      60.9  T
   6    -40.1190533 -0.116756E-09  0.119E-04    3.59     183.7  T
     SCC iter.                  ...        0 min,  0.011 sec
     gradient                   ...        0 min,  0.005 sec
 * total energy  :   -39.6290781 Eh     change       -0.1168885E-04 Eh
   gradient norm :     0.0012195 Eh/α   predicted    -0.8202928E-05 ( -29.82%)
   displ. norm   :     0.1464939 α      lambda       -0.9790742E-05
   maximum displ.:     0.0793463 α      in ANC's #6, #1, #3, ...

........................................................................
.............................. CYCLE   35 ..............................
........................................................................

 iter      E             dE          RMSdq      gap      omega  full diag
   1    -40.1184058 -0.401184E+02  0.378E-02    3.59       0.0  T
   2    -40.1184063 -0.473479E-06  0.225E-02    3.59       1.0  T
   3    -40.1184062  0.807517E-07  0.327E-03    3.59       6.7  T
   4    -40.1184063 -0.109156E-06  0.123E-03    3.59      17.8  T
   5    -40.1184063 -0.240173E-07  0.442E-04    3.59      49.3  T
   6    -40.1184063 -0.289198E-09  0.189E-04    3.59     115.5  T
     SCC iter.                  ...        0 min,  0.011 sec
     gradient                   ...        0 min,  0.004 sec
 * total energy  :   -39.6290818 Eh     change       -0.3721322E-05 Eh
   gradient norm :     0.0027594 Eh/α   predicted    -0.4942290E-05 (  32.81%)
   displ. norm   :     0.0353984 α      lambda       -0.1376857E-04
   maximum displ.:     0.0195603 α      in ANC's #8, #2, #5, ...

........................................................................
.............................. CYCLE   36 ..............................
........................................................................

 iter      E             dE          RMSdq      gap      omega  full diag
   1    -40.1190480 -0.401190E+02  0.155E-02    3.60       0.0  T
   2    -40.1190482 -0.193978E-06  0.894E-03    3.59       2.4  T
   3    -40.1190481  0.130074E-07  0.228E-03    3.59       9.6  T
   4    -40.1190482 -0.336220E-07  0.818E-04    3.59      26.7  T
   5    -40.1190482 -0.753830E-08  0.336E-04    3.59      64.9  T
     SCC iter.                  ...        0 min,  0.008 sec
     gradient                   ...        0 min,  0.003 sec
 * total energy  :   -39.6290881 Eh     change       -0.6318397E-05 Eh
   gradient norm :     0.0017083 Eh/α   predicted    -0.6893391E-05 (   9.10%)
   displ. norm   :     0.0218355 α      lambda       -0.3535630E-05
   maximum displ.:     0.0131340 α      in ANC's #3, #6, #1, ...

........................................................................
.............................. CYCLE   37 ..............................
........................................................................

 iter      E             dE          RMSdq      gap      omega  full diag
   1    -40.1191877 -0.401192E+02  0.904E-03    3.60       0.0  T
   2    -40.1191878 -0.176012E-06  0.528E-03    3.60       4.1  T
   3    -40.1191878  0.777104E-08  0.202E-03    3.60      10.8  T
   4    -40.1191878 -0.112334E-07  0.658E-04    3.60      33.1  T
   5    -40.1191878 -0.682751E-08  0.145E-04    3.60     150.8  T
     SCC iter.                  ...        0 min,  0.008 sec
     gradient                   ...        0 min,  0.003 sec
 * total energy  :   -39.6290916 Eh     change       -0.3455108E-05 Eh
   gradient norm :     0.0006888 Eh/α   predicted    -0.1774891E-05 ( -48.63%)
   displ. norm   :     0.0222861 α      lambda        0.3916869E-06
   maximum displ.:     0.0134308 α      in ANC's #3, #6, #1, ...

   *** GEOMETRY OPTIMIZATION CONVERGED AFTER 37 ITERATIONS ***

------------------------------------------------------------------------
 total energy gain   :        -0.0312512 Eh      -19.6104 kcal/mol
 total RMSD          :         0.6818041 a0        0.3608 Å
 total power (kW/mol):        -2.2175678 (step) -163.4401 (real)
------------------------------------------------------------------------

 ANCopt (total)                0 d,  0 h,  0 min,  0.502 sec
 optimizer setup                ...        0 min,  0.001 sec (  0.129%)
 model hessian                  ...        0 min,  0.010 sec (  1.962%)
 ANC generation                 ...        0 min,  0.002 sec (  0.413%)
 coordinate transformation      ...        0 min,  0.000 sec (  0.066%)
 single point calculation       ...        0 min,  0.461 sec ( 91.760%)
 optimization log               ...        0 min,  0.006 sec (  1.244%)
 hessian update                 ...        0 min,  0.001 sec (  0.286%)
 rational function              ...        0 min,  0.017 sec (  3.477%)

================
 final structure:
================
21
 xtb: 6.6.0 (conda-forge)
C            3.50291697958400       -0.27597748215816       -0.22786046227191
C            2.25418513434631        0.19737016590803        0.45705660394038
O            2.16296281463953        0.55957132544116        1.59644604725796
O            1.21902594847373        0.13593122636459       -0.40616636159362
C           -0.05997618157150        0.44537055903002       -0.00378336651897
C           -0.35202567544207        1.64554880535807        0.62809760127119
C           -1.66115664784546        1.95191432343469        0.95458430505863
C           -2.68577879930425        1.07317115371747        0.64134062163174
C           -2.39973060622366       -0.12280040096283        0.01248370259384
C           -1.08649894568245       -0.45906207677411       -0.30951908410720
C           -0.77497925109675       -1.76998221253253       -0.92563315242735
O            0.31338308856694       -2.28218130159563       -0.98625208676929
O           -1.86840786718410       -2.38049409874161       -1.41391687545032
H            3.35460165176068       -1.31004763831598       -0.53143184540638
H            4.34809164384019       -0.19841628094890        0.44828074171244
H            3.67739148249853        0.31528008251516       -1.12375439217488
H            0.44826216916374        2.32849764858614        0.86515836381014
H           -1.87979458860489        2.88459306290127        1.45207563532010
H           -3.70628922767223        1.31933383321261        0.89141553056663
H           -3.18752016137964       -0.81889184425217       -0.22817582953533
H           -1.61856296086652       -3.23862885018745       -1.79064569690745

 Bond Distances (Angstroems)
 ---------------------------
C1-C2=1.5008         C1-H14=1.0879        C1-H15=1.0851        C1-H16=1.0875        C2-C1=1.5008         C2-O3=1.1990         
C2-O4=1.3493         O3-C2=1.1990         O4-C2=1.3493         O4-C5=1.3760         C5-O4=1.3760         C5-C6=1.3874         
C5-C10=1.4019        C6-C5=1.3874         C6-C7=1.3836         C6-H17=1.0785        C7-C6=1.3836         C7-C8=1.3857         
C7-H18=1.0794        C8-C7=1.3857         C8-C9=1.3812         C8-H19=1.0792        C9-C8=1.3812         C9-C10=1.3933        
C9-H20=1.0785        C10-C5=1.4019        C10-C9=1.3933        C10-C11=1.4816       C11-C10=1.4816       C11-O12=1.2044       
C11-O13=1.3441       O12-C11=1.2044       O13-C11=1.3441       O13-H21=0.9699       H14-C1=1.0879        H15-C1=1.0851        
H16-C1=1.0875        H17-C6=1.0785        H18-C7=1.0794        H19-C8=1.0792        H20-C9=1.0785        H21-O13=0.9699       
 C  H  Rav=1.0823 sigma=0.0040  Rmin=1.0785  Rmax=1.0879     7
 C  C  Rav=1.4144 sigma=0.0450  Rmin=1.3812  Rmax=1.5008     8
 O  H  Rav=0.9699 sigma=0.0000  Rmin=0.9699  Rmax=0.9699     1
 O  C  Rav=1.2946 sigma=0.0766  Rmin=1.1990  Rmax=1.3760     5

 selected bond angles (degree)
 --------------------
H14-C1-C2=108.28               H15-C1-C2=109.95               H15-C1-H14=110.37              H16-C1-C2=109.75               
H16-C1-H14=107.99              H16-C1-H15=110.46              O3-C2-C1=126.31                O4-C2-C1=109.39                
O4-C2-O3=124.29                C5-O4-C2=121.05                C6-C5-O4=121.56                C10-C5-O4=118.15               
C10-C5-C6=120.22               C7-C6-C5=119.88                H17-C6-C5=119.45               H17-C6-C7=120.67               
C8-C7-C6=120.39                H18-C7-C6=119.45               H18-C7-C8=120.16               C9-C8-C7=119.93                
H19-C8-C7=120.15               H19-C8-C9=119.93               C10-C9-C8=120.62               H20-C9-C8=120.61               
H20-C9-C10=118.76              C9-C10-C5=118.95               C11-C10-C5=120.50              C11-C10-C9=120.52              

 selected dihedral angles (degree)
 ---------------------------------
O3-C2-C1-H14=117.74           O3-C2-C1-H15=357.09           O3-C2-C1-H16=235.40           O4-C2-C1-H14=298.73           
O4-C2-C1-H15=178.08           O4-C2-C1-H16= 56.39           C5-O4-C2-C1=176.34            C5-O4-C2-O3=357.30            
C6-C5-O4-C2= 53.01            C10-C5-O4-C2=229.82           C7-C6-C5-O4=176.59            C7-C6-C5-C10=359.85           
H17-C6-C5-O4=356.22           H17-C6-C5-C10=179.48          C8-C7-C6-C5=359.30            C8-C7-C6-H17=179.68           
H18-C7-C6-C5=179.59           H18-C7-C6-H17=359.96          C9-C8-C7-C6=  0.70            C9-C8-C7-H18=180.42           
H19-C8-C7-C6=180.44           H19-C8-C7-H18=  0.16          C10-C9-C8-C7=  0.14           C10-C9-C8-H19=180.40          
H20-C9-C8-C7=179.43           H20-C9-C8-H19=359.69          C9-C10-C5-O4=184.13           C9-C10-C5-C6=  0.98           
C11-C10-C5-O4=  6.07          C11-C10-C5-C6=182.92          C5-C10-C9-C8=359.02           C5-C10-C9-H20=179.72          
C11-C10-C9-C8=177.08          C11-C10-C9-H20=357.78         
           -------------------------------------------------
          |                Final Singlepoint                |
           -------------------------------------------------

          ...................................................
          :                      SETUP                      :
          :.................................................:
          :  # basis functions                  60          :
          :  # atomic orbitals                  60          :
          :  # shells                           34          :
          :  # electrons                        68          :
          :  max. iterations                   250          :
          :  Hamiltonian                  GFN2-xTB          :
          :  restarted?                      false          :
          :  GBSA solvation                  false          :
          :  PC potential                    false          :
          :  electronic temp.          300.0000000     K    :
          :  accuracy                    1.0000000          :
          :  -> integral cutoff          0.2500000E+02      :
          :  -> integral neglect         0.1000000E-07      :
          :  -> SCF convergence          0.1000000E-05 Eh   :
          :  -> wf. convergence          0.1000000E-03 e    :
          :  Broyden damping             0.4000000          :
          ...................................................

 iter      E             dE          RMSdq      gap      omega  full diag
   1    -40.1191878 -0.401192E+02  0.825E-05    3.60       0.0  T
   2    -40.1191878 -0.172378E-10  0.477E-05    3.60     457.1  T
   3    -40.1191878 -0.251532E-11  0.309E-05    3.60     706.8  T

   *** convergence criteria satisfied after 3 iterations ***

         #    Occupation            Energy/Eh            Energy/eV
      -------------------------------------------------------------
         1        2.0000           -0.7495660             -20.3967
       ...           ...                  ...                  ...
        28        2.0000           -0.4746965             -12.9171
        29        2.0000           -0.4620984             -12.5743
        30        2.0000           -0.4506801             -12.2636
        31        2.0000           -0.4312230             -11.7342
        32        2.0000           -0.4248897             -11.5618
        33        2.0000           -0.4178768             -11.3710
        34        2.0000           -0.4159388             -11.3183 (HOMO)
        35                         -0.2837612              -7.7215 (LUMO)
        36                         -0.2502801              -6.8105
        37                         -0.2243849              -6.1058
        38                         -0.2007155              -5.4617
        39                         -0.1051468              -2.8612
       ...                                ...                  ...
        60                          0.6834457              18.5975
      -------------------------------------------------------------
                  HL-Gap            0.1321776 Eh            3.5967 eV
             Fermi-level           -0.3498500 Eh           -9.5199 eV

 SCC (total)                   0 d,  0 h,  0 min,  0.010 sec
 SCC setup                      ...        0 min,  0.000 sec (  2.241%)
 Dispersion                     ...        0 min,  0.000 sec (  2.060%)
 classical contributions        ...        0 min,  0.000 sec (  0.626%)
 integral evaluation            ...        0 min,  0.001 sec ( 12.265%)
 iterations                     ...        0 min,  0.005 sec ( 45.647%)
 molecular gradient             ...        0 min,  0.003 sec ( 34.937%)
 printout                       ...        0 min,  0.000 sec (  2.010%)

         :::::::::::::::::::::::::::::::::::::::::::::::::::::
         ::                     SUMMARY                     ::
         :::::::::::::::::::::::::::::::::::::::::::::::::::::
         :: total energy             -39.629091578956 Eh    ::
         :: gradient norm              0.000689393812 Eh/a0 ::
         :: HOMO-LUMO gap              3.596735295655 eV    ::
         ::.................................................::
         :: SCC energy               -40.119187843634 Eh    ::
         :: -> isotropic ES            0.092355501909 Eh    ::
         :: -> anisotropic ES         -0.000384151416 Eh    ::
         :: -> anisotropic XC          0.006151015761 Eh    ::
         :: -> dispersion             -0.018618344886 Eh    ::
         :: repulsion energy           0.490034552557 Eh    ::
         :: add. restraining           0.000000000000 Eh    ::
         :: total charge              -0.000000000000 e     ::
         :::::::::::::::::::::::::::::::::::::::::::::::::::::

           -------------------------------------------------
          |                Property Printout                |
           -------------------------------------------------

    * Orbital Energies and Occupations

         #    Occupation            Energy/Eh            Energy/eV
      -------------------------------------------------------------
         1        2.0000           -0.7495660             -20.3967
       ...           ...                  ...                  ...
        22        2.0000           -0.5088658             -13.8469
        23        2.0000           -0.4959912             -13.4966
        24        2.0000           -0.4905865             -13.3495
        25        2.0000           -0.4839981             -13.1703
        26        2.0000           -0.4825685             -13.1314
        27        2.0000           -0.4800470             -13.0627
        28        2.0000           -0.4746965             -12.9171
        29        2.0000           -0.4620984             -12.5743
        30        2.0000           -0.4506801             -12.2636
        31        2.0000           -0.4312230             -11.7342
        32        2.0000           -0.4248897             -11.5618
        33        2.0000           -0.4178768             -11.3710
        34        2.0000           -0.4159388             -11.3183 (HOMO)
        35                         -0.2837612              -7.7215 (LUMO)
        36                         -0.2502801              -6.8105
        37                         -0.2243849              -6.1058
        38                         -0.2007155              -5.4617
        39                         -0.1051468              -2.8612
        40                          0.0209818               0.5709
        41                          0.0491563               1.3376
        42                          0.1182603               3.2180
        43                          0.1254618               3.4140
        44                          0.1507849               4.1031
        45                          0.1568936               4.2693
       ...                                ...                  ...
        60                          0.6834457              18.5975
      -------------------------------------------------------------
                  HL-Gap            0.1321776 Eh            3.5967 eV
             Fermi-level           -0.3498500 Eh           -9.5199 eV

     #   Z          covCN         q      C6AA      α(0)
     1   6 C        3.754    -0.149    23.443     6.904
     2   6 C        2.710     0.369    20.748     7.456
     3   8 O        0.856    -0.396    21.602     6.231
     4   8 O        1.709    -0.238    17.947     5.720
     5   6 C        2.872     0.158    24.574     8.126
     6   6 C        2.916    -0.040    29.001     8.831
     7   6 C        2.921    -0.019    28.489     8.753
     8   6 C        2.917    -0.031    28.775     8.796
     9   6 C        2.923    -0.021    28.537     8.760
    10   6 C        2.969    -0.031    28.781     8.800
    11   6 C        2.695     0.362    20.852     7.474
    12   8 O        0.856    -0.408    21.851     6.267
    13   8 O        1.660    -0.381    20.476     6.109
    14   1 H        0.925     0.094     1.837     2.119
    15   1 H        0.925     0.077     2.009     2.217
    16   1 H        0.925     0.080     1.982     2.202
    17   1 H        0.926     0.068     2.107     2.270
    18   1 H        0.926     0.055     2.253     2.347
    19   1 H        0.926     0.052     2.292     2.367
    20   1 H        0.926     0.070     2.090     2.261
    21   1 H        0.804     0.330     0.637     1.254

 Mol. C6AA /au·bohr⁶  :       5544.845137
 Mol. C8AA /au·bohr⁸  :     132438.558745
 Mol. α(0) /au        :        115.264304


Wiberg/Mayer (AO) data.
largest (>0.10) Wiberg bond orders for each atom

 ---------------------------------------------------------------------------
     #   Z sym  total        # sym  WBO       # sym  WBO       # sym  WBO
 ---------------------------------------------------------------------------
     1   6 C    3.988 --     2 C    0.993    15 H    0.982    16 H    0.963
                            14 H    0.956
     2   6 C    3.909 --     3 O    1.775     4 O    1.080     1 C    0.993
     3   8 O    2.057 --     2 C    1.775     4 O    0.160
     4   8 O    2.362 --     2 C    1.080     5 C    1.002     3 O    0.160
     5   6 C    3.931 --     6 C    1.398    10 C    1.332     4 O    1.002
     6   6 C    3.988 --     7 C    1.440     5 C    1.398    17 H    0.965
                             9 C    0.105
     7   6 C    3.990 --     6 C    1.440     8 C    1.428    18 H    0.969
     8   6 C    3.991 --     9 C    1.453     7 C    1.428    19 H    0.969
     9   6 C    3.987 --     8 C    1.453    10 C    1.389    20 H    0.964
                             6 C    0.105
    10   6 C    3.986 --     9 C    1.389     5 C    1.332    11 C    1.012
    11   6 C    3.920 --    12 O    1.742    13 O    1.116    10 C    1.012
    12   8 O    2.039 --    11 C    1.742    13 O    0.170
    13   8 O    2.191 --    11 C    1.116    21 H    0.867    12 O    0.170
    14   1 H    0.991 --     1 C    0.956
    15   1 H    0.993 --     1 C    0.982
    16   1 H    0.994 --     1 C    0.963
    17   1 H    0.995 --     6 C    0.965
    18   1 H    0.996 --     7 C    0.969
    19   1 H    0.997 --     8 C    0.969
    20   1 H    0.994 --     9 C    0.964
    21   1 H    0.890 --    13 O    0.867
 ---------------------------------------------------------------------------

Topologies differ in total number of bonds
Writing topology from bond orders to xtbtopo.mol

molecular dipole:
                 x           y           z       tot (Debye)
 q only:       -0.774       0.293      -0.582
   full:       -0.785       0.151      -0.750       2.786
molecular quadrupole (traceless):
                xx          xy          yy          xz          yz          zz
 q only:        7.149       0.388       0.702      -4.953       1.936      -7.851
  q+dip:        5.574       1.967       4.372      -6.126       3.780      -9.947
   full:        4.359       1.894       3.849      -5.847       1.679      -8.209

           -------------------------------------------------
          |                Geometry Summary                 |
           -------------------------------------------------

      molecular mass/u    :      180.1577688
   center of mass at/Å    :       -0.0472566      -0.1661047      -0.0257571
  moments of inertia/u·Å² :        0.4652161E+03   0.6849059E+03   0.1098864E+04
rotational constants/cm⁻¹ :        0.3623613E-01   0.2461306E-01   0.1534096E-01

 * 19 selected distances

     #   Z          #   Z                                           value/Å
     2   6 C        3   8 O                                       1.1990495
     2   6 C        4   8 O                                       1.3492529
     4   8 O        5   6 C                                       1.3760493
     5   6 C        6   6 C                                       1.3874418
     6   6 C        7   6 C                                       1.3835742
     7   6 C        8   6 C                                       1.3856991
     8   6 C        9   6 C                                       1.3811708
     5   6 C       10   6 C                                       1.4018638 (max)
     9   6 C       10   6 C                                       1.3933181
    11   6 C       12   8 O                                       1.2043901
    11   6 C       13   8 O                                       1.3441474
     1   6 C       14   1 H                                       1.0878669
     1   6 C       15   1 H                                       1.0851281
     1   6 C       16   1 H                                       1.0874985
     6   6 C       17   1 H                                       1.0784608
     7   6 C       18   1 H                                       1.0794397
     8   6 C       19   1 H                                       1.0791549
     9   6 C       20   1 H                                       1.0784586
    13   8 O       21   1 H                                       0.9699188 (min)

 * 4 distinct bonds (by element types)

   Z      Z             #   av. dist./Å        max./Å        min./Å
   1 H    6 C           7     1.0822868     1.0878669     1.0784586
   6 C    6 C           6     1.3888447     1.4018638     1.3811708
   1 H    8 O           1     0.9699188     0.9699188     0.9699188
   6 C    8 O           5     1.2945778     1.3760493     1.1990495


optimized geometry written to: xtbopt.xyz


           -------------------------------------------------
          | TOTAL ENERGY              -39.629091578956 Eh   |
          | GRADIENT NORM               0.000689393812 Eh/α |
          | HOMO-LUMO GAP               3.596735295655 eV   |
           -------------------------------------------------
########################################################################
[WARNING] Runtime exception occurred
-2- restart_readRestart: Dimension missmatch in restart file.
-1- restart_readRestart: Number of electron missmatch in restart file.
########################################################################

------------------------------------------------------------------------
 * finished run on 2024/12/03 at 16:15:43.909     
------------------------------------------------------------------------
 total:
 * wall-time:     0 d,  0 h,  0 min,  0.971 sec
 *  cpu-time:     0 d,  0 h,  0 min,  4.475 sec
 * ratio c/w:     4.608 speedup
 SCF:
 * wall-time:     0 d,  0 h,  0 min,  0.055 sec
 *  cpu-time:     0 d,  0 h,  0 min,  0.280 sec
 * ratio c/w:     5.124 speedup
 ANC optimizer:
 * wall-time:     0 d,  0 h,  0 min,  0.515 sec
 *  cpu-time:     0 d,  0 h,  0 min,  2.764 sec
 * ratio c/w:     5.367 speedup

