      -----------------------------------------------------------      
     |                   =====================                   |     
     |                           x T B                           |     
     |                   =====================                   |     
     |                         S. Grimme                         |     
     |          Mulliken Center for Theoretical Chemistry        |     
     |                    University of Bonn                     |     
      -----------------------------------------------------------      

   * xtb version 6.6.0 (conda-forge) compiled by 'runner@Mac-1676020848589.local' on 2023-02-10

   xtb is free software: you can redistribute it and/or modify it under
   the terms of the GNU Lesser General Public License as published by
   the Free Software Foundation, either version 3 of the License, or
   (at your option) any later version.
   
   xtb is distributed in the hope that it will be useful,
   but WITHOUT ANY WARRANTY; without even the implied warranty of
   MERCHANTABILITY or FITNESS FOR A PARTICULAR PURPOSE.  See the
   GNU Lesser General Public License for more details.
   
   Cite this work as:
   * C. Bannwarth, E. Caldeweyher, S. Ehlert, A. Hansen, P. Pracht,
     J. Seibert, S. Spicher, S. Grimme, WIREs Comput. Mol. Sci., 2020, 11,
     e01493. DOI: 10.1002/wcms.1493
   
   for GFN2-xTB:
   * C. Bannwarth, S. Ehlert and S. Grimme., J. Chem. Theory Comput., 2019,
     15, 1652-1671. DOI: 10.1021/acs.jctc.8b01176
   for GFN1-xTB:
   * S. Grimme, C. Bannwarth, P. Shushkov, J. Chem. Theory Comput., 2017,
     13, 1989-2009. DOI: 10.1021/acs.jctc.7b00118
   for GFN0-xTB:
   * P. Pracht, E. Caldeweyher, S. Ehlert, S. Grimme, ChemRxiv, 2019, preprint.
     DOI: 10.26434/chemrxiv.8326202.v1
   for GFN-FF:
   * S. Spicher and S. Grimme, Angew. Chem. Int. Ed., 2020, 59, 15665-15673.
     DOI: 10.1002/anie.202004239
   
   for ALPB and GBSA implicit solvation:
   * S. Ehlert, M. Stahn, S. Spicher, S. Grimme, J. Chem. Theory Comput.,
     2021, 17, 4250-4261. DOI: 10.1021/acs.jctc.1c00471
   
   for DFT-D4:
   * E. Caldeweyher, C. Bannwarth and S. Grimme, J. Chem. Phys., 2017,
     147, 034112. DOI: 10.1063/1.4993215
   * E. Caldeweyher, S. Ehlert, A. Hansen, H. Neugebauer, S. Spicher,
     C. Bannwarth and S. Grimme, J. Chem. Phys., 2019, 150, 154122.
     DOI: 10.1063/1.5090222
   * E. Caldeweyher, J.-M. Mewes, S. Ehlert and S. Grimme, Phys. Chem. Chem. Phys.
     2020, 22, 8499-8512. DOI: 10.1039/D0CP00502A
   
   for sTDA-xTB:
   * S. Grimme and C. Bannwarth, J. Chem. Phys., 2016, 145, 054103.
     DOI: 10.1063/1.4959605
   
   in the mass-spec context:
   * V. Asgeirsson, C. Bauer and S. Grimme, Chem. Sci., 2017, 8, 4879.
     DOI: 10.1039/c7sc00601b
   * J. Koopman and S. Grimme, ACS Omega 2019, 4, 12, 15120-15133.
     DOI: 10.1021/acsomega.9b02011
   
   for metadynamics refer to:
   * S. Grimme, J. Chem. Theory Comput., 2019, 155, 2847-2862
     DOI: 10.1021/acs.jctc.9b00143
   
   for SPH calculations refer to:
   * S. Spicher and S. Grimme, J. Chem. Theory Comput., 2021, 17, 1701-1714
     DOI: 10.1021/acs.jctc.0c01306
   
   with help from (in alphabetical order)
   P. Atkinson, C. Bannwarth, F. Bohle, G. Brandenburg, E. Caldeweyher
   M. Checinski, S. Dohm, S. Ehlert, S. Ehrlich, I. Gerasimov, C. Hölzer
   A. Katbashev, J. Koopman, C. Lavigne, S. Lehtola, F. März, M. Müller,
   F. Musil, H. Neugebauer, J. Pisarek, C. Plett, P. Pracht, F. Pultar,
   J. Seibert, P. Shushkov, S. Spicher, M. Stahn, M. Steiner, T. Strunk,
   J. Stückrath, T. Rose, and J. Unsleber
   
 * started run on 2024/12/10 at 16:24:28.896     

           -------------------------------------------------
          |                Calculation Setup                |
           -------------------------------------------------

          program call               : xtb paracetamol.xyz --opt --gfn2
          coordinate file            : paracetamol.xyz
          omp threads                :                     8

   ID    Z sym.   atoms
    1    6 C      1, 2, 5-10
    2    8 O      3, 11
    3    7 N      4
    4    1 H      12-20

           -------------------------------------------------
          |                 G F N 2 - x T B                 |
           -------------------------------------------------

        Reference                      10.1021/acs.jctc.8b01176
      * Hamiltonian:
        H0-scaling (s, p, d)           1.850000    2.230000    2.230000
        zeta-weighting                 0.500000
      * Dispersion:
        s8                             2.700000
        a1                             0.520000
        a2                             5.000000
        s9                             5.000000
      * Repulsion:
        kExp                           1.500000    1.000000
        rExp                           1.000000
      * Coulomb:
        alpha                          2.000000
        third order                    shell-resolved
        anisotropic                    true
        a3                             3.000000
        a5                             4.000000
        cn-shift                       1.200000
        cn-exp                         4.000000
        max-rad                        5.000000


          ...................................................
          :                      SETUP                      :
          :.................................................:
          :  # basis functions                  53          :
          :  # atomic orbitals                  53          :
          :  # shells                           31          :
          :  # electrons                        58          :
          :  max. iterations                   250          :
          :  Hamiltonian                  GFN2-xTB          :
          :  restarted?                      false          :
          :  GBSA solvation                  false          :
          :  PC potential                    false          :
          :  electronic temp.          300.0000000     K    :
          :  accuracy                    1.0000000          :
          :  -> integral cutoff          0.2500000E+02      :
          :  -> integral neglect         0.1000000E-07      :
          :  -> SCF convergence          0.1000000E-05 Eh   :
          :  -> wf. convergence          0.1000000E-03 e    :
          :  Broyden damping             0.4000000          :
          ...................................................

 iter      E             dE          RMSdq      gap      omega  full diag
   1    -33.0959568 -0.330960E+02  0.448E+00    3.36       0.0  T
   2    -33.1517098 -0.557529E-01  0.250E+00    3.47       1.0  T
   3    -33.1533801 -0.167036E-02  0.135E+00    3.55       1.0  T
   4    -33.1589614 -0.558126E-02  0.268E-01    3.39       1.0  T
   5    -33.1600134 -0.105201E-02  0.945E-02    3.46       1.0  T
   6    -33.1600248 -0.114319E-04  0.459E-02    3.47       1.0  T
   7    -33.1600402 -0.153917E-04  0.193E-02    3.46       1.2  T
   8    -33.1600432 -0.301933E-05  0.550E-03    3.46       4.1  T
   9    -33.1600433 -0.353231E-07  0.217E-03    3.46      10.3  T
  10    -33.1600433 -0.446993E-07  0.950E-04    3.46      23.5  T
  11    -33.1600433 -0.785185E-08  0.307E-04    3.46      72.9  T

   *** convergence criteria satisfied after 11 iterations ***

         #    Occupation            Energy/Eh            Energy/eV
      -------------------------------------------------------------
         1        2.0000           -0.6968318             -18.9618
       ...           ...                  ...                  ...
        23        2.0000           -0.4630982             -12.6015
        24        2.0000           -0.4565041             -12.4221
        25        2.0000           -0.4302778             -11.7085
        26        2.0000           -0.4179166             -11.3721
        27        2.0000           -0.4056811             -11.0391
        28        2.0000           -0.3949619             -10.7475
        29        2.0000           -0.3701377             -10.0720 (HOMO)
        30                         -0.2429801              -6.6118 (LUMO)
        31                         -0.2302262              -6.2648
        32                         -0.2048112              -5.5732
        33                         -0.0977895              -2.6610
        34                         -0.0502280              -1.3668
       ...                                ...                  ...
        53                          0.6195387              16.8585
      -------------------------------------------------------------
                  HL-Gap            0.1271576 Eh            3.4601 eV
             Fermi-level           -0.3065589 Eh           -8.3419 eV

 SCC (total)                   0 d,  0 h,  0 min,  0.015 sec
 SCC setup                      ...        0 min,  0.000 sec (  2.467%)
 Dispersion                     ...        0 min,  0.000 sec (  0.789%)
 classical contributions        ...        0 min,  0.000 sec (  0.304%)
 integral evaluation            ...        0 min,  0.001 sec (  3.700%)
 iterations                     ...        0 min,  0.012 sec ( 82.161%)
 molecular gradient             ...        0 min,  0.001 sec (  9.687%)
 printout                       ...        0 min,  0.000 sec (  0.802%)

         :::::::::::::::::::::::::::::::::::::::::::::::::::::
         ::                     SUMMARY                     ::
         :::::::::::::::::::::::::::::::::::::::::::::::::::::
         :: total energy             -32.759261746979 Eh    ::
         :: gradient norm              0.121036590445 Eh/a0 ::
         :: HOMO-LUMO gap              3.460134268450 eV    ::
         ::.................................................::
         :: SCC energy               -33.160043329104 Eh    ::
         :: -> isotropic ES            0.061132431855 Eh    ::
         :: -> anisotropic ES          0.005396896057 Eh    ::
         :: -> anisotropic XC          0.011666860401 Eh    ::
         :: -> dispersion             -0.015823430255 Eh    ::
         :: repulsion energy           0.400820747591 Eh    ::
         :: add. restraining           0.000000000000 Eh    ::
         :: total charge              -0.000000000000 e     ::
         :::::::::::::::::::::::::::::::::::::::::::::::::::::

      ----------------------------------------------------------- 
     |                   =====================                   |
     |                        A N C O P T                        |
     |                   =====================                   |
     |               Approximate Normal Coordinate               |
     |                Rational Function Optimizer                |
      ----------------------------------------------------------- 

          ...................................................
          :                      SETUP                      :
          :.................................................:
          :   optimization level            normal          :
          :   max. optcycles                   200          :
          :   ANC micro-cycles                  20          :
          :   degrees of freedom                54          :
          :.................................................:
          :   RF solver                   davidson          :
          :   write xtbopt.log                true          :
          :   linear?                        false          :
          :   energy convergence         0.5000000E-05 Eh   :
          :   grad. convergence          0.1000000E-02 Eh/α :
          :   maxmium RF displ.          1.0000000          :
          :   Hlow (freq-cutoff)         0.1000000E-01      :
          :   Hmax (freq-cutoff)         5.0000000          :
          :   S6 in model hess.         20.0000000          :
          ...................................................

generating ANC from model Hessian ...
Using Lindh-Hessian (1995)
 Shifting diagonal of input Hessian by    8.6291894485261717E-003
 Lowest  eigenvalues of input Hessian
    0.000000    0.000000    0.000000    0.000000    0.000000    0.000000
    0.010000    0.011113    0.011869    0.016297    0.020641    0.022723
    0.024548    0.027370    0.030723    0.035117    0.043391    0.049864
 Highest eigenvalues
    1.583036    1.793941    1.829994    1.933687    2.009533    2.028642


........................................................................
.............................. CYCLE    1 ..............................
........................................................................

 iter      E             dE          RMSdq      gap      omega  full diag
   1    -33.1600433 -0.331600E+02  0.134E-04    3.46       0.0  T
   2    -33.1600433 -0.584350E-10  0.857E-05    3.46     261.0  T
   3    -33.1600433 -0.409628E-10  0.529E-05    3.46     422.4  T
     SCC iter.                  ...        0 min,  0.003 sec
     gradient                   ...        0 min,  0.001 sec
 * total energy  :   -32.7592617 Eh     change       -0.5348966E-09 Eh
   gradient norm :     0.1210357 Eh/α   predicted     0.0000000E+00 (-100.00%)
   displ. norm   :     0.3497970 α      lambda       -0.2313738E-01
   maximum displ.:     0.1828279 α      in ANC's #8, #17, #29, ...

........................................................................
.............................. CYCLE    2 ..............................
........................................................................

 iter      E             dE          RMSdq      gap      omega  full diag
   1    -33.2159150 -0.332159E+02  0.287E-01    3.78       0.0  T
   2    -33.2162381 -0.323140E-03  0.176E-01    3.74       1.0  T
   3    -33.2162509 -0.127500E-04  0.884E-02    3.76       1.0  T
   4    -33.2162731 -0.222549E-04  0.196E-02    3.75       1.1  T
   5    -33.2162769 -0.377883E-05  0.655E-03    3.75       3.4  T
   6    -33.2162772 -0.319362E-06  0.354E-03    3.75       6.3  T
   7    -33.2162773 -0.115349E-06  0.121E-03    3.75      18.4  T
   8    -33.2162773 -0.162570E-08  0.384E-04    3.75      58.2  T
   9    -33.2162773 -0.421082E-09  0.148E-04    3.75     151.1  T
     SCC iter.                  ...        0 min,  0.005 sec
     gradient                   ...        0 min,  0.001 sec
 * total energy  :   -32.7753213 Eh     change       -0.1605952E-01 Eh
   gradient norm :     0.0453509 Eh/α   predicted    -0.1299779E-01 ( -19.06%)
   displ. norm   :     0.3516755 α      lambda       -0.7134425E-02
   maximum displ.:     0.2582491 α      in ANC's #8, #2, #17, ...

........................................................................
.............................. CYCLE    3 ..............................
........................................................................

 iter      E             dE          RMSdq      gap      omega  full diag
   1    -33.2450440 -0.332450E+02  0.210E-01    3.88       0.0  T
   2    -33.2452093 -0.165249E-03  0.131E-01    3.88       1.0  T
   3    -33.2452133 -0.401442E-05  0.614E-02    3.88       1.0  T
   4    -33.2452228 -0.952134E-05  0.156E-02    3.88       1.4  T
   5    -33.2452256 -0.279438E-05  0.482E-03    3.88       4.6  T
   6    -33.2452258 -0.200052E-06  0.245E-03    3.88       9.1  T
   7    -33.2452258 -0.473979E-07  0.747E-04    3.88      30.0  T
   8    -33.2452258 -0.637591E-09  0.270E-04    3.88      82.9  T
     SCC iter.                  ...        0 min,  0.004 sec
     gradient                   ...        0 min,  0.001 sec
 * total energy  :   -32.7791920 Eh     change       -0.3870760E-02 Eh
   gradient norm :     0.0158643 Eh/α   predicted    -0.4011270E-02 (   3.63%)
   displ. norm   :     0.2414450 α      lambda       -0.1352406E-02
   maximum displ.:     0.1677987 α      in ANC's #2, #8, #13, ...

........................................................................
.............................. CYCLE    4 ..............................
........................................................................

 iter      E             dE          RMSdq      gap      omega  full diag
   1    -33.2445317 -0.332445E+02  0.135E-01    3.84       0.0  T
   2    -33.2445698 -0.381192E-04  0.813E-02    3.86       1.0  T
   3    -33.2445698  0.281504E-07  0.304E-02    3.86       1.0  T
   4    -33.2445718 -0.202541E-05  0.761E-03    3.86       2.9  T
   5    -33.2445727 -0.927025E-06  0.275E-03    3.86       8.1  T
   6    -33.2445727 -0.208804E-07  0.129E-03    3.86      17.4  T
   7    -33.2445727 -0.497351E-08  0.529E-04    3.86      42.3  T
   8    -33.2445727 -0.175086E-08  0.159E-04    3.86     140.3  T
     SCC iter.                  ...        0 min,  0.003 sec
     gradient                   ...        0 min,  0.001 sec
 * total energy  :   -32.7799933 Eh     change       -0.8012538E-03 Eh
   gradient norm :     0.0093023 Eh/α   predicted    -0.7156227E-03 ( -10.69%)
   displ. norm   :     0.2402098 α      lambda       -0.6084820E-03
   maximum displ.:     0.2009098 α      in ANC's #2, #8, #3, ...

........................................................................
.............................. CYCLE    5 ..............................
........................................................................

 iter      E             dE          RMSdq      gap      omega  full diag
   1    -33.2428432 -0.332428E+02  0.872E-02    3.85       0.0  T
   2    -33.2428465 -0.327803E-05  0.513E-02    3.85       1.0  T
   3    -33.2428437  0.278536E-05  0.155E-02    3.85       1.4  T
   4    -33.2428475 -0.386976E-05  0.352E-03    3.85       6.4  T
   5    -33.2428476 -0.879445E-07  0.182E-03    3.85      12.3  T
   6    -33.2428476 -0.360122E-08  0.645E-04    3.85      34.7  T
   7    -33.2428476 -0.274167E-08  0.248E-04    3.85      90.1  T
     SCC iter.                  ...        0 min,  0.002 sec
     gradient                   ...        0 min,  0.001 sec
 * total energy  :   -32.7804469 Eh     change       -0.4535884E-03 Eh
   gradient norm :     0.0104387 Eh/α   predicted    -0.3217971E-03 ( -29.06%)
   displ. norm   :     0.2247439 α      lambda       -0.4366864E-03
   maximum displ.:     0.1913505 α      in ANC's #2, #3, #5, ...

........................................................................
.............................. CYCLE    6 ..............................
........................................................................

 iter      E             dE          RMSdq      gap      omega  full diag
   1    -33.2421948 -0.332422E+02  0.777E-02    3.85       0.0  T
   2    -33.2421978 -0.301475E-05  0.453E-02    3.84       1.0  T
   3    -33.2421951  0.264960E-05  0.177E-02    3.84       1.3  T
   4    -33.2421988 -0.370218E-05  0.275E-03    3.84       8.1  T
   5    -33.2421989 -0.469672E-07  0.120E-03    3.84      18.6  T
   6    -33.2421989 -0.573937E-08  0.627E-04    3.84      35.7  T
   7    -33.2421989 -0.971276E-09  0.207E-04    3.84     107.9  T
     SCC iter.                  ...        0 min,  0.004 sec
     gradient                   ...        0 min,  0.001 sec
 * total energy  :   -32.7808020 Eh     change       -0.3551379E-03 Eh
   gradient norm :     0.0081812 Eh/α   predicted    -0.2293723E-03 ( -35.41%)
   displ. norm   :     0.2699797 α      lambda       -0.4404930E-03
   maximum displ.:     0.2306538 α      in ANC's #2, #5, #3, ...

........................................................................
.............................. CYCLE    7 ..............................
........................................................................

 iter      E             dE          RMSdq      gap      omega  full diag
   1    -33.2423015 -0.332423E+02  0.960E-02    3.84       0.0  T
   2    -33.2423044 -0.287796E-05  0.559E-02    3.84       1.0  T
   3    -33.2423008  0.353568E-05  0.193E-02    3.84       1.2  T
   4    -33.2423056 -0.476732E-05  0.290E-03    3.84       7.7  T
   5    -33.2423056 -0.337051E-07  0.132E-03    3.84      16.9  T
   6    -33.2423056 -0.529217E-08  0.692E-04    3.84      32.3  T
   7    -33.2423056 -0.158422E-08  0.168E-04    3.84     133.0  T
     SCC iter.                  ...        0 min,  0.002 sec
     gradient                   ...        0 min,  0.001 sec
 * total energy  :   -32.7811662 Eh     change       -0.3641541E-03 Eh
   gradient norm :     0.0080033 Eh/α   predicted    -0.2363010E-03 ( -35.11%)
   displ. norm   :     0.3457084 α      lambda       -0.4856828E-03
   maximum displ.:     0.2959450 α      in ANC's #2, #5, #1, ...

........................................................................
.............................. CYCLE    8 ..............................
........................................................................

 iter      E             dE          RMSdq      gap      omega  full diag
   1    -33.2424038 -0.332424E+02  0.130E-01    3.82       0.0  T
   2    -33.2424069 -0.303106E-05  0.759E-02    3.82       1.0  T
   3    -33.2424030  0.381739E-05  0.196E-02    3.82       1.1  T
   4    -33.2424083 -0.525254E-05  0.344E-03    3.82       6.5  T
   5    -33.2424083 -0.348269E-07  0.166E-03    3.82      13.5  T
   6    -33.2424083 -0.408026E-08  0.675E-04    3.82      33.1  T
   7    -33.2424083 -0.191463E-08  0.224E-04    3.82     100.0  T
     SCC iter.                  ...        0 min,  0.003 sec
     gradient                   ...        0 min,  0.001 sec
 * total energy  :   -32.7815495 Eh     change       -0.3833248E-03 Eh
   gradient norm :     0.0097779 Eh/α   predicted    -0.2718673E-03 ( -29.08%)
   displ. norm   :     0.3947073 α      lambda       -0.4834132E-03
   maximum displ.:     0.3374598 α      in ANC's #2, #5, #1, ...

........................................................................
.............................. CYCLE    9 ..............................
........................................................................

 iter      E             dE          RMSdq      gap      omega  full diag
   1    -33.2426380 -0.332426E+02  0.155E-01    3.80       0.0  T
   2    -33.2426419 -0.388898E-05  0.909E-02    3.80       1.0  T
   3    -33.2426395  0.233385E-05  0.170E-02    3.79       1.3  T
   4    -33.2426433 -0.380819E-05  0.404E-03    3.79       5.5  T
   5    -33.2426434 -0.549417E-07  0.210E-03    3.79      10.7  T
   6    -33.2426434 -0.601077E-08  0.820E-04    3.79      27.3  T
   7    -33.2426434 -0.401383E-08  0.285E-04    3.79      78.4  T
     SCC iter.                  ...        0 min,  0.005 sec
     gradient                   ...        0 min,  0.002 sec
 * total energy  :   -32.7818885 Eh     change       -0.3390443E-03 Eh
   gradient norm :     0.0105502 Eh/α   predicted    -0.2793653E-03 ( -17.60%)
   displ. norm   :     0.2323020 α      lambda       -0.3375467E-03
   maximum displ.:     0.1853557 α      in ANC's #2, #5, #34, ...

........................................................................
.............................. CYCLE   10 ..............................
........................................................................

 iter      E             dE          RMSdq      gap      omega  full diag
   1    -33.2459367 -0.332459E+02  0.104E-01    3.80       0.0  T
   2    -33.2459413 -0.464897E-05  0.612E-02    3.80       1.0  T
   3    -33.2459398  0.152081E-05  0.133E-02    3.80       1.7  T
   4    -33.2459422 -0.242631E-05  0.267E-03    3.80       8.4  T
   5    -33.2459423 -0.323280E-07  0.153E-03    3.80      14.6  T
   6    -33.2459423 -0.521293E-08  0.814E-04    3.80      27.5  T
   7    -33.2459423 -0.373299E-08  0.235E-04    3.80      95.2  T
     SCC iter.                  ...        0 min,  0.004 sec
     gradient                   ...        0 min,  0.001 sec
 * total energy  :   -32.7821196 Eh     change       -0.2310805E-03 Eh
   gradient norm :     0.0053177 Eh/α   predicted    -0.1778818E-03 ( -23.02%)
   displ. norm   :     0.3837587 α      lambda       -0.3221096E-03
   maximum displ.:     0.2949592 α      in ANC's #2, #5, #3, ...

........................................................................
.............................. CYCLE   11 ..............................
........................................................................

 iter      E             dE          RMSdq      gap      omega  full diag
   1    -33.2426598 -0.332427E+02  0.192E-01    3.72       0.0  T
   2    -33.2426927 -0.329172E-04  0.113E-01    3.74       1.0  T
   3    -33.2426911  0.159823E-05  0.285E-02    3.73       1.0  T
   4    -33.2426956 -0.456938E-05  0.583E-03    3.74       3.8  T
   5    -33.2426960 -0.395873E-06  0.296E-03    3.74       7.5  T
   6    -33.2426961 -0.181649E-07  0.129E-03    3.74      17.3  T
   7    -33.2426961 -0.114515E-07  0.544E-04    3.74      41.1  T
   8    -33.2426961 -0.200392E-08  0.140E-04    3.74     159.5  T
     SCC iter.                  ...        0 min,  0.005 sec
     gradient                   ...        0 min,  0.001 sec
 * total energy  :   -32.7821661 Eh     change       -0.4652774E-04 Eh
   gradient norm :     0.0222525 Eh/α   predicted    -0.1847787E-03 ( 297.14%)
   displ. norm   :     0.1066249 α      lambda       -0.4490705E-03
   maximum displ.:     0.0778689 α      in ANC's #2, #3, #4, ...

........................................................................
.............................. CYCLE   12 ..............................
........................................................................

 iter      E             dE          RMSdq      gap      omega  full diag
   1    -33.2472766 -0.332473E+02  0.457E-02    3.80       0.0  T
   2    -33.2472955 -0.188785E-04  0.296E-02    3.78       1.0  T
   3    -33.2472970 -0.146536E-05  0.170E-02    3.78       1.3  T
   4    -33.2472970  0.149448E-07  0.445E-03    3.78       5.0  T
   5    -33.2472972 -0.224800E-06  0.157E-03    3.78      14.3  T
   6    -33.2472972 -0.198025E-07  0.832E-04    3.78      26.9  T
   7    -33.2472972 -0.376965E-08  0.363E-04    3.78      61.6  T
     SCC iter.                  ...        0 min,  0.005 sec
     gradient                   ...        0 min,  0.002 sec
 * total energy  :   -32.7824175 Eh     change       -0.2514073E-03 Eh
   gradient norm :     0.0056437 Eh/α   predicted    -0.2270884E-03 (  -9.67%)
   displ. norm   :     0.1703861 α      lambda       -0.1624889E-03
   maximum displ.:     0.1071646 α      in ANC's #3, #5, #2, ...

........................................................................
.............................. CYCLE   13 ..............................
........................................................................

 iter      E             dE          RMSdq      gap      omega  full diag
   1    -33.2472965 -0.332473E+02  0.864E-02    3.78       0.0  T
   2    -33.2472975 -0.993275E-06  0.507E-02    3.77       1.0  T
   3    -33.2472974  0.804380E-07  0.533E-03    3.77       4.2  T
   4    -33.2472978 -0.389695E-06  0.210E-03    3.77      10.6  T
   5    -33.2472978 -0.260831E-07  0.108E-03    3.77      20.7  T
   6    -33.2472978 -0.183195E-08  0.399E-04    3.77      56.1  T
   7    -33.2472978 -0.108408E-08  0.152E-04    3.77     146.8  T
     SCC iter.                  ...        0 min,  0.004 sec
     gradient                   ...        0 min,  0.001 sec
 * total energy  :   -32.7825526 Eh     change       -0.1350160E-03 Eh
   gradient norm :     0.0053937 Eh/α   predicted    -0.8360429E-04 ( -38.08%)
   displ. norm   :     0.3827563 α      lambda       -0.3082010E-03
   maximum displ.:     0.2263963 α      in ANC's #3, #5, #2, ...

........................................................................
.............................. CYCLE   14 ..............................
........................................................................

 iter      E             dE          RMSdq      gap      omega  full diag
   1    -33.2433254 -0.332433E+02  0.207E-01    3.73       0.0  T
   2    -33.2433356 -0.102326E-04  0.121E-01    3.73       1.0  T
   3    -33.2433340  0.159447E-05  0.182E-02    3.73       1.2  T
   4    -33.2433378 -0.380034E-05  0.501E-03    3.73       4.5  T
   5    -33.2433379 -0.134492E-06  0.288E-03    3.73       7.8  T
   6    -33.2433380 -0.137617E-07  0.107E-03    3.73      20.8  T
   7    -33.2433380 -0.792620E-08  0.431E-04    3.73      51.9  T
   8    -33.2433380 -0.418531E-09  0.796E-05    3.73     281.0  T
     SCC iter.                  ...        0 min,  0.004 sec
     gradient                   ...        0 min,  0.001 sec
 * total energy  :   -32.7826938 Eh     change       -0.1412522E-03 Eh
   gradient norm :     0.0124576 Eh/α   predicted    -0.1766775E-03 (  25.08%)
   displ. norm   :     0.0970452 α      lambda       -0.1833416E-03
   maximum displ.:     0.0721789 α      in ANC's #2, #5, #3, ...

........................................................................
.............................. CYCLE   15 ..............................
........................................................................

 iter      E             dE          RMSdq      gap      omega  full diag
   1    -33.2458384 -0.332458E+02  0.406E-02    3.77       0.0  T
   2    -33.2458424 -0.398800E-05  0.248E-02    3.76       1.0  T
   3    -33.2458423  0.696680E-07  0.118E-02    3.76       1.9  T
   4    -33.2458432 -0.819862E-06  0.265E-03    3.76       8.4  T
   5    -33.2458432 -0.707018E-07  0.118E-03    3.76      18.9  T
   6    -33.2458432 -0.574662E-08  0.641E-04    3.76      34.9  T
   7    -33.2458432 -0.135825E-08  0.228E-04    3.76      98.2  T
     SCC iter.                  ...        0 min,  0.004 sec
     gradient                   ...        0 min,  0.001 sec
 * total energy  :   -32.7827830 Eh     change       -0.8917765E-04 Eh
   gradient norm :     0.0032317 Eh/α   predicted    -0.9256220E-04 (   3.80%)
   displ. norm   :     0.1134107 α      lambda       -0.6539447E-04
   maximum displ.:     0.0659467 α      in ANC's #2, #3, #5, ...

........................................................................
.............................. CYCLE   16 ..............................
........................................................................

 iter      E             dE          RMSdq      gap      omega  full diag
   1    -33.2452344 -0.332452E+02  0.607E-02    3.76       0.0  T
   2    -33.2452351 -0.633706E-06  0.357E-02    3.76       1.0  T
   3    -33.2452348  0.306227E-06  0.619E-03    3.76       3.6  T
   4    -33.2452353 -0.500196E-06  0.160E-03    3.76      14.0  T
   5    -33.2452353 -0.142837E-07  0.801E-04    3.76      27.9  T
   6    -33.2452353 -0.129439E-08  0.321E-04    3.76      69.7  T
     SCC iter.                  ...        0 min,  0.003 sec
     gradient                   ...        0 min,  0.001 sec
 * total energy  :   -32.7828333 Eh     change       -0.5028344E-04 Eh
   gradient norm :     0.0026908 Eh/α   predicted    -0.3312113E-04 ( -34.13%)
   displ. norm   :     0.2441055 α      lambda       -0.1102584E-03
   maximum displ.:     0.1445049 α      in ANC's #2, #3, #5, ...

........................................................................
.............................. CYCLE   17 ..............................
........................................................................

 iter      E             dE          RMSdq      gap      omega  full diag
   1    -33.2444125 -0.332444E+02  0.139E-01    3.73       0.0  T
   2    -33.2444187 -0.618370E-05  0.813E-02    3.74       1.0  T
   3    -33.2444179  0.713275E-06  0.122E-02    3.74       1.8  T
   4    -33.2444195 -0.150800E-05  0.351E-03    3.74       6.4  T
   5    -33.2444196 -0.136713E-06  0.179E-03    3.74      12.5  T
   6    -33.2444196 -0.827541E-08  0.703E-04    3.74      31.8  T
   7    -33.2444196 -0.271039E-08  0.296E-04    3.74      75.5  T
     SCC iter.                  ...        0 min,  0.003 sec
     gradient                   ...        0 min,  0.001 sec
 * total energy  :   -32.7828686 Eh     change       -0.3534964E-04 Eh
   gradient norm :     0.0087190 Eh/α   predicted    -0.5841666E-04 (  65.25%)
   displ. norm   :     0.0624065 α      lambda       -0.8254595E-04
   maximum displ.:     0.0470251 α      in ANC's #3, #4, #5, ...

........................................................................
.............................. CYCLE   18 ..............................
........................................................................

 iter      E             dE          RMSdq      gap      omega  full diag
   1    -33.2461873 -0.332462E+02  0.319E-02    3.76       0.0  T
   2    -33.2461912 -0.383616E-05  0.186E-02    3.76       1.2  T
   3    -33.2461913 -0.150767E-06  0.901E-03    3.76       2.5  T
   4    -33.2461915 -0.160769E-06  0.182E-03    3.76      12.3  T
   5    -33.2461915 -0.412957E-07  0.736E-04    3.76      30.4  T
   6    -33.2461915 -0.361332E-08  0.357E-04    3.76      62.6  T
     SCC iter.                  ...        0 min,  0.004 sec
     gradient                   ...        0 min,  0.001 sec
 * total energy  :   -32.7829088 Eh     change       -0.4013036E-04 Eh
   gradient norm :     0.0024663 Eh/α   predicted    -0.4144006E-04 (   3.26%)
   displ. norm   :     0.0610881 α      lambda       -0.2221241E-04
   maximum displ.:     0.0320148 α      in ANC's #1, #2, #3, ...

........................................................................
.............................. CYCLE   19 ..............................
........................................................................

 iter      E             dE          RMSdq      gap      omega  full diag
   1    -33.2461880 -0.332462E+02  0.316E-02    3.76       0.0  T
   2    -33.2461880 -0.773145E-07  0.186E-02    3.75       1.2  T
   3    -33.2461880  0.217975E-07  0.177E-03    3.75      12.6  T
   4    -33.2461881 -0.549387E-07  0.582E-04    3.75      38.4  T
   5    -33.2461881 -0.787239E-09  0.310E-04    3.75      72.2  T
     SCC iter.                  ...        0 min,  0.004 sec
     gradient                   ...        0 min,  0.001 sec
 * total energy  :   -32.7829273 Eh     change       -0.1855204E-04 Eh
   gradient norm :     0.0017673 Eh/α   predicted    -0.1115511E-04 ( -39.87%)
   displ. norm   :     0.2437610 α      lambda       -0.4412508E-04
   maximum displ.:     0.1394887 α      in ANC's #2, #1, #3, ...

........................................................................
.............................. CYCLE   20 ..............................
........................................................................

 iter      E             dE          RMSdq      gap      omega  full diag
   1    -33.2454837 -0.332455E+02  0.127E-01    3.74       0.0  T
   2    -33.2454850 -0.130117E-05  0.746E-02    3.74       1.0  T
   3    -33.2454849  0.984642E-07  0.623E-03    3.74       3.6  T
   4    -33.2454855 -0.579600E-06  0.238E-03    3.74       9.4  T
   5    -33.2454855 -0.262613E-07  0.133E-03    3.74      16.8  T
   6    -33.2454855 -0.512237E-08  0.443E-04    3.74      50.5  T
   7    -33.2454855 -0.127770E-08  0.188E-04    3.74     119.2  T
     SCC iter.                  ...        0 min,  0.003 sec
     gradient                   ...        0 min,  0.001 sec
 * total energy  :   -32.7829535 Eh     change       -0.2620629E-04 Eh
   gradient norm :     0.0042153 Eh/α   predicted    -0.2263924E-04 ( -13.61%)
   displ. norm   :     0.0251638 α      lambda       -0.1981050E-04
   maximum displ.:     0.0193064 α      in ANC's #1, #5, #13, ...
 * RMSD in coord.:     0.7029230 α      energy gain  -0.2369177E-01 Eh

generating ANC from model Hessian ...
Using Lindh-Hessian (1995)
 Shifting diagonal of input Hessian by    8.3547795493969425E-003
 Lowest  eigenvalues of input Hessian
    0.000000    0.000000    0.000000    0.000000    0.000000    0.000000
    0.010000    0.011779    0.012891    0.015719    0.023744    0.024102
    0.027565    0.029001    0.033589    0.042743    0.053381    0.054361
 Highest eigenvalues
    1.705022    1.924660    2.002853    2.044847    2.184244    2.365210


........................................................................
.............................. CYCLE   21 ..............................
........................................................................

 iter      E             dE          RMSdq      gap      omega  full diag
   1    -33.2463479 -0.332463E+02  0.128E-02    3.75       0.0  T
   2    -33.2463482 -0.277898E-06  0.765E-03    3.75       2.9  T
   3    -33.2463482  0.191426E-07  0.327E-03    3.75       6.8  T
   4    -33.2463483 -0.762045E-07  0.541E-04    3.75      41.4  T
   5    -33.2463483 -0.142330E-08  0.311E-04    3.75      71.8  T
     SCC iter.                  ...        0 min,  0.004 sec
     gradient                   ...        0 min,  0.001 sec
 * total energy  :   -32.7829655 Eh     change       -0.1196676E-04 Eh
   gradient norm :     0.0017402 Eh/α   predicted     0.0000000E+00 (-100.00%)
   displ. norm   :     0.0214204 α      lambda       -0.6761517E-05
   maximum displ.:     0.0137242 α      in ANC's #1, #2, #13, ...

........................................................................
.............................. CYCLE   22 ..............................
........................................................................

 iter      E             dE          RMSdq      gap      omega  full diag
   1    -33.2466121 -0.332466E+02  0.103E-02    3.75       0.0  T
   2    -33.2466121 -0.488764E-07  0.620E-03    3.75       3.6  T
   3    -33.2466121  0.215537E-07  0.149E-03    3.75      15.0  T
   4    -33.2466121 -0.300924E-07  0.296E-04    3.75      75.4  T
   5    -33.2466121 -0.738936E-09  0.140E-04    3.75     159.7  T
     SCC iter.                  ...        0 min,  0.003 sec
     gradient                   ...        0 min,  0.001 sec
 * total energy  :   -32.7829726 Eh     change       -0.7135912E-05 Eh
   gradient norm :     0.0005963 Eh/α   predicted    -0.3642657E-05 ( -48.95%)
   displ. norm   :     0.0316721 α      lambda       -0.4200874E-05
   maximum displ.:     0.0218276 α      in ANC's #1, #2, #5, ...

........................................................................
.............................. CYCLE   23 ..............................
........................................................................

 iter      E             dE          RMSdq      gap      omega  full diag
   1    -33.2466047 -0.332466E+02  0.112E-02    3.75       0.0  T
   2    -33.2466047 -0.391183E-07  0.662E-03    3.75       3.4  T
   3    -33.2466047  0.350825E-07  0.176E-03    3.75      12.7  T
   4    -33.2466047 -0.447610E-07  0.301E-04    3.75      74.3  T
   5    -33.2466047 -0.782634E-09  0.134E-04    3.75     166.8  T
     SCC iter.                  ...        0 min,  0.004 sec
     gradient                   ...        0 min,  0.001 sec
 * total energy  :   -32.7829771 Eh     change       -0.4444329E-05 Eh
   gradient norm :     0.0006372 Eh/α   predicted    -0.2103935E-05 ( -52.66%)
   displ. norm   :     0.0465670 α      lambda       -0.4265732E-05
   maximum displ.:     0.0296177 α      in ANC's #2, #1, #5, ...

   *** GEOMETRY OPTIMIZATION CONVERGED AFTER 23 ITERATIONS ***

------------------------------------------------------------------------
 total energy gain   :        -0.0237153 Eh      -14.8816 kcal/mol
 total RMSD          :         0.7059908 a0        0.3736 Å
 total power (kW/mol):        -2.7071545 (step) -438.7017 (real)
------------------------------------------------------------------------

 ANCopt (total)                0 d,  0 h,  0 min,  0.142 sec
 optimizer setup                ...        0 min,  0.000 sec (  0.078%)
 model hessian                  ...        0 min,  0.004 sec (  3.089%)
 ANC generation                 ...        0 min,  0.001 sec (  0.724%)
 coordinate transformation      ...        0 min,  0.000 sec (  0.082%)
 single point calculation       ...        0 min,  0.130 sec ( 91.911%)
 optimization log               ...        0 min,  0.002 sec (  1.634%)
 hessian update                 ...        0 min,  0.000 sec (  0.300%)
 rational function              ...        0 min,  0.002 sec (  1.619%)

================
 final structure:
================
20
 xtb: 6.6.0 (conda-forge)
C            3.68014697950991       -0.22856614213514       -0.28887269412198
C            2.36947248892894        0.44262428101659        0.07860082699626
O            2.30429032760487        1.56664824212489        0.51910346468566
N            1.29711918743806       -0.37188570476032       -0.14029236662657
C           -0.06529876110361       -0.11583374516290        0.06297278679737
C           -0.54152344525280        1.07979992910814        0.59541756883060
C           -1.89661950169904        1.27116590562209        0.76741831329404
C           -2.80361201238987        0.27732379323598        0.41341620956347
C           -2.33087630795572       -0.91716078797471       -0.11506266243575
C           -0.97376523629986       -1.11015610767055       -0.28755177806107
O           -4.13201166304880        0.51336029605146        0.59973757431549
H            4.48774629859789        0.48984649289189       -0.18361536736534
H            3.65077526607258       -0.58960979474810       -1.31488154460480
H            3.86629908036144       -1.06980723993117        0.37591418720770
H            1.49423753721183       -1.28958656248859       -0.51550458543978
H            0.15531296205134        1.85334984611804        0.86918928922582
H           -2.27420567816376        2.19326812099108        1.17846761657791
H           -3.02588919493440       -1.69863122394598       -0.39322182624706
H           -0.61818121359116       -2.04421667040448       -0.70032797972201
H           -4.64341711333789       -0.25173292793839        0.31109296713009

 Bond Distances (Angstroems)
 ---------------------------
C1-C2=1.5177         C1-H12=1.0860        C1-H13=1.0881        C1-H14=1.0882        C2-C1=1.5177         C2-O3=1.2090         
C2-N4=1.3643         O3-C2=1.2090         N4-C2=1.3643         N4-C5=1.4011         N4-H15=1.0108        C5-N4=1.4011         
C5-C6=1.3928         C5-C10=1.3917        C6-C5=1.3928         C6-C7=1.3793         C6-H16=1.0765        C7-C6=1.3793         
C7-C8=1.3913         C7-H17=1.0779        C8-C7=1.3913         C8-C9=1.3891         C8-O11=1.3620        C9-C8=1.3891         
C9-C10=1.3816        C9-H18=1.0822        C10-C5=1.3917        C10-C9=1.3816        C10-H19=1.0813       O11-C8=1.3620        
O11-H20=0.9645       H12-C1=1.0860        H13-C1=1.0881        H14-C1=1.0882        H15-N4=1.0108        H16-C6=1.0765        
H17-C7=1.0779        H18-C9=1.0822        H19-C10=1.0813       H20-O11=0.9645       
 C  H  Rav=1.0829 sigma=0.0044  Rmin=1.0765  Rmax=1.0882     7
 C  C  Rav=1.4062 sigma=0.0458  Rmin=1.3793  Rmax=1.5177     7
 N  H  Rav=1.0108 sigma=0.0000  Rmin=1.0108  Rmax=1.0108     1
 N  C  Rav=1.3827 sigma=0.0184  Rmin=1.3643  Rmax=1.4011     2
 O  H  Rav=0.9645 sigma=0.0000  Rmin=0.9645  Rmax=0.9645     1
 O  C  Rav=1.2855 sigma=0.0765  Rmin=1.2090  Rmax=1.3620     2

 selected bond angles (degree)
 --------------------
H12-C1-C2=109.04               H13-C1-C2=110.59               H13-C1-H12=109.33              H14-C1-C2=109.98               
H14-C1-H12=108.96              H14-C1-H13=108.91              O3-C2-C1=123.09                N4-C2-C1=112.08                
N4-C2-O3=124.83                C5-N4-C2=129.19                H15-N4-C2=116.63               H15-N4-C5=114.17               
C6-C5-N4=123.01                C10-C5-N4=117.88               C10-C5-C6=119.11               C7-C6-C5=120.18                
H16-C6-C5=119.52               H16-C6-C7=120.30               C8-C7-C6=120.64                H17-C7-C6=120.69               
H17-C7-C8=118.67               C9-C8-C7=119.29                O11-C8-C7=118.50               O11-C8-C9=122.21               
C10-C9-C8=120.13               H18-C9-C8=120.01               H18-C9-C10=119.86              C9-C10-C5=120.66               
H19-C10-C5=119.91              H19-C10-C9=119.43              

 selected dihedral angles (degree)
 ---------------------------------
O3-C2-C1-H12=354.46           O3-C2-C1-H13=234.22           O3-C2-C1-H14=113.88           N4-C2-C1-H12=174.81           
N4-C2-C1-H13= 54.57           N4-C2-C1-H14=294.24           C5-N4-C2-C1=180.51            C5-N4-C2-O3=  0.87            
H15-N4-C2-C1=359.48           H15-N4-C2-O3=179.84           C6-C5-N4-C2=357.76            C6-C5-N4-H15=178.77           
C10-C5-N4-C2=177.75           C10-C5-N4-H15=358.76          C7-C6-C5-N4=179.83            C7-C6-C5-C10=359.84           
H16-C6-C5-N4=359.98           H16-C6-C5-C10=179.98          C8-C7-C6-C5=  0.00            C8-C7-C6-H16=179.86           
H17-C7-C6-C5=180.02           H17-C7-C6-H16=359.87          C9-C8-C7-C6=  0.13            C9-C8-C7-H17=180.13           
O11-C8-C7-C6=180.11           O11-C8-C7-H17=  0.10          C10-C9-C8-C7=359.88           C10-C9-C8-O11=179.90          
H18-C9-C8-C7=179.92           H18-C9-C8-O11=359.94          C9-C10-C5-N4=180.18           C9-C10-C5-C6=  0.18           
H19-C10-C5-N4=  0.12          H19-C10-C5-C6=180.11          C5-C10-C9-C8=359.96           C5-C10-C9-H18=179.92          
H19-C10-C9-C8=180.03          H19-C10-C9-H18=  0.00         
           -------------------------------------------------
          |                Final Singlepoint                |
           -------------------------------------------------

          ...................................................
          :                      SETUP                      :
          :.................................................:
          :  # basis functions                  53          :
          :  # atomic orbitals                  53          :
          :  # shells                           31          :
          :  # electrons                        58          :
          :  max. iterations                   250          :
          :  Hamiltonian                  GFN2-xTB          :
          :  restarted?                      false          :
          :  GBSA solvation                  false          :
          :  PC potential                    false          :
          :  electronic temp.          300.0000000     K    :
          :  accuracy                    1.0000000          :
          :  -> integral cutoff          0.2500000E+02      :
          :  -> integral neglect         0.1000000E-07      :
          :  -> SCF convergence          0.1000000E-05 Eh   :
          :  -> wf. convergence          0.1000000E-03 e    :
          :  Broyden damping             0.4000000          :
          ...................................................

 iter      E             dE          RMSdq      gap      omega  full diag
   1    -33.2466047 -0.332466E+02  0.582E-05    3.75       0.0  T
   2    -33.2466047 -0.142464E-10  0.328E-05    3.75     680.8  T
   3    -33.2466047 -0.490274E-11  0.200E-05    3.75    1117.4  T

   *** convergence criteria satisfied after 3 iterations ***

         #    Occupation            Energy/Eh            Energy/eV
      -------------------------------------------------------------
         1        2.0000           -0.7105857             -19.3360
       ...           ...                  ...                  ...
        23        2.0000           -0.4742755             -12.9057
        24        2.0000           -0.4603002             -12.5254
        25        2.0000           -0.4324538             -11.7677
        26        2.0000           -0.4282508             -11.6533
        27        2.0000           -0.4087489             -11.1226
        28        2.0000           -0.3935280             -10.7084
        29        2.0000           -0.3706400             -10.0856 (HOMO)
        30                         -0.2326496              -6.3307 (LUMO)
        31                         -0.2269132              -6.1746
        32                         -0.1862472              -5.0680
        33                         -0.0856252              -2.3300
        34                          0.0084681               0.2304
       ...                                ...                  ...
        53                          0.6773391              18.4313
      -------------------------------------------------------------
                  HL-Gap            0.1379904 Eh            3.7549 eV
             Fermi-level           -0.3016448 Eh           -8.2082 eV

 SCC (total)                   0 d,  0 h,  0 min,  0.004 sec
 SCC setup                      ...        0 min,  0.000 sec (  2.775%)
 Dispersion                     ...        0 min,  0.000 sec (  1.172%)
 classical contributions        ...        0 min,  0.000 sec (  0.407%)
 integral evaluation            ...        0 min,  0.000 sec (  9.119%)
 iterations                     ...        0 min,  0.002 sec ( 47.848%)
 molecular gradient             ...        0 min,  0.001 sec ( 36.288%)
 printout                       ...        0 min,  0.000 sec (  2.167%)

         :::::::::::::::::::::::::::::::::::::::::::::::::::::
         ::                     SUMMARY                     ::
         :::::::::::::::::::::::::::::::::::::::::::::::::::::
         :: total energy             -32.782977063239 Eh    ::
         :: gradient norm              0.000636711769 Eh/a0 ::
         :: HOMO-LUMO gap              3.754908668304 eV    ::
         ::.................................................::
         :: SCC energy               -33.246604739816 Eh    ::
         :: -> isotropic ES            0.057422933395 Eh    ::
         :: -> anisotropic ES          0.004342582864 Eh    ::
         :: -> anisotropic XC          0.009570213444 Eh    ::
         :: -> dispersion             -0.016032572901 Eh    ::
         :: repulsion energy           0.463674303509 Eh    ::
         :: add. restraining           0.000000000000 Eh    ::
         :: total charge              -0.000000000000 e     ::
         :::::::::::::::::::::::::::::::::::::::::::::::::::::

           -------------------------------------------------
          |                Property Printout                |
           -------------------------------------------------

    * Orbital Energies and Occupations

         #    Occupation            Energy/Eh            Energy/eV
      -------------------------------------------------------------
         1        2.0000           -0.7105857             -19.3360
       ...           ...                  ...                  ...
        17        2.0000           -0.4986868             -13.5700
        18        2.0000           -0.4926106             -13.4046
        19        2.0000           -0.4919986             -13.3880
        20        2.0000           -0.4847468             -13.1906
        21        2.0000           -0.4801058             -13.0643
        22        2.0000           -0.4747486             -12.9186
        23        2.0000           -0.4742755             -12.9057
        24        2.0000           -0.4603002             -12.5254
        25        2.0000           -0.4324538             -11.7677
        26        2.0000           -0.4282508             -11.6533
        27        2.0000           -0.4087489             -11.1226
        28        2.0000           -0.3935280             -10.7084
        29        2.0000           -0.3706400             -10.0856 (HOMO)
        30                         -0.2326496              -6.3307 (LUMO)
        31                         -0.2269132              -6.1746
        32                         -0.1862472              -5.0680
        33                         -0.0856252              -2.3300
        34                          0.0084681               0.2304
        35                          0.0730050               1.9866
        36                          0.0790076               2.1499
        37                          0.1259889               3.4283
        38                          0.1487847               4.0486
        39                          0.1529220               4.1612
        40                          0.1762385               4.7957
       ...                                ...                  ...
        53                          0.6773391              18.4313
      -------------------------------------------------------------
                  HL-Gap            0.1379904 Eh            3.7549 eV
             Fermi-level           -0.3016448 Eh           -8.2082 eV

     #   Z          covCN         q      C6AA      α(0)
     1   6 C        3.758    -0.145    23.360     6.891
     2   6 C        2.745     0.280    22.252     7.724
     3   8 O        0.858    -0.413    21.945     6.281
     4   7 N        2.697    -0.163    24.534     7.356
     5   6 C        2.904     0.065    26.552     8.449
     6   6 C        2.921    -0.047    29.168     8.857
     7   6 C        2.920    -0.051    29.279     8.873
     8   6 C        2.845     0.140    24.944     8.185
     9   6 C        2.918    -0.070    29.735     8.942
    10   6 C        2.926    -0.056    29.393     8.891
    11   8 O        1.659    -0.392    20.691     6.141
    12   1 H        0.925     0.073     2.054     2.241
    13   1 H        0.925     0.053     2.279     2.361
    14   1 H        0.925     0.058     2.224     2.332
    15   1 H        0.860     0.173     1.252     1.753
    16   1 H        0.926     0.083     1.952     2.185
    17   1 H        0.926     0.058     2.222     2.331
    18   1 H        0.925     0.029     2.605     2.524
    19   1 H        0.925     0.028     2.612     2.527
    20   1 H        0.805     0.298     0.726     1.339

 Mol. C6AA /au·bohr⁶  :       4615.661101
 Mol. C8AA /au·bohr⁸  :     108991.104716
 Mol. α(0) /au        :        106.183314


Wiberg/Mayer (AO) data.
largest (>0.10) Wiberg bond orders for each atom

 ---------------------------------------------------------------------------
     #   Z sym  total        # sym  WBO       # sym  WBO       # sym  WBO
 ---------------------------------------------------------------------------
     1   6 C    3.993 --    12 H    0.983     2 C    0.977    13 H    0.973
                            14 H    0.969
     2   6 C    3.947 --     3 O    1.715     4 N    1.197     1 C    0.977
     3   8 O    2.032 --     2 C    1.715     4 N    0.168
     4   7 N    3.487 --     2 C    1.197     5 C    1.067    15 H    0.937
                             3 O    0.168
     5   6 C    3.961 --    10 C    1.372     6 C    1.362     4 N    1.067
     6   6 C    3.986 --     7 C    1.468     5 C    1.362    16 H    0.959
                             9 C    0.102
     7   6 C    3.988 --     6 C    1.468     8 C    1.359    17 H    0.967
                            10 C    0.105
     8   6 C    3.938 --     9 C    1.371     7 C    1.359    11 O    1.068
     9   6 C    3.987 --    10 C    1.451     8 C    1.371    18 H    0.967
                             6 C    0.102
    10   6 C    3.989 --     9 C    1.451     5 C    1.372    19 H    0.967
                             7 C    0.105
    11   8 O    2.111 --     8 C    1.068    20 H    0.890
    12   1 H    0.994 --     1 C    0.983
    13   1 H    0.997 --     1 C    0.973
    14   1 H    0.996 --     1 C    0.969
    15   1 H    0.969 --     4 N    0.937
    16   1 H    0.993 --     6 C    0.959
    17   1 H    0.996 --     7 C    0.967
    18   1 H    0.999 --     9 C    0.967
    19   1 H    0.999 --    10 C    0.967
    20   1 H    0.911 --    11 O    0.890
 ---------------------------------------------------------------------------

Topologies differ in total number of bonds
Writing topology from bond orders to xtbtopo.mol

molecular dipole:
                 x           y           z       tot (Debye)
 q only:       -0.143      -1.458      -0.554
   full:       -0.126      -2.018      -0.781       5.508
molecular quadrupole (traceless):
                xx          xy          yy          xz          yz          zz
 q only:        5.048      -3.178      -3.109      -1.540      -0.585      -1.939
  q+dip:        6.443      -2.066      -2.362      -1.244       0.610      -4.080
   full:        5.789      -2.322      -3.628      -1.115      -0.939      -2.161

           -------------------------------------------------
          |                Geometry Summary                 |
           -------------------------------------------------

      molecular mass/u    :      151.1628670
   center of mass at/Å    :       -0.2562089       0.2251985       0.2003742
  moments of inertia/u·Å² :        0.1394632E+03   0.9135670E+03   0.1049794E+04
rotational constants/cm⁻¹ :        0.1208752E+00   0.1845254E-01   0.1605804E-01

 * 19 selected distances

     #   Z          #   Z                                           value/Å
     2   6 C        3   8 O                                       1.2090167
     2   6 C        4   7 N                                       1.3642883
     4   7 N        5   6 C                                       1.4010933 (max)
     5   6 C        6   6 C                                       1.3927770
     6   6 C        7   6 C                                       1.3793081
     7   6 C        8   6 C                                       1.3912855
     8   6 C        9   6 C                                       1.3890870
     5   6 C       10   6 C                                       1.3917098
     9   6 C       10   6 C                                       1.3815754
     8   6 C       11   8 O                                       1.3620113
     1   6 C       12   1 H                                       1.0860077
     1   6 C       13   1 H                                       1.0880761
     1   6 C       14   1 H                                       1.0882468
     4   7 N       15   1 H                                       1.0108486
     6   6 C       16   1 H                                       1.0765276
     7   6 C       17   1 H                                       1.0778708
     9   6 C       18   1 H                                       1.0821791
    10   6 C       19   1 H                                       1.0813388
    11   8 O       20   1 H                                       0.9644786 (min)

 * 6 distinct bonds (by element types)

   Z      Z             #   av. dist./Å        max./Å        min./Å
   1 H    6 C           7     1.0828924     1.0882468     1.0765276
   6 C    6 C           6     1.3876238     1.3927770     1.3793081
   1 H    7 N           1     1.0108486     1.0108486     1.0108486
   6 C    7 N           2     1.3826908     1.4010933     1.3642883
   1 H    8 O           1     0.9644786     0.9644786     0.9644786
   6 C    8 O           2     1.2855140     1.3620113     1.2090167


optimized geometry written to: xtbopt.xyz


           -------------------------------------------------
          | TOTAL ENERGY              -32.782977063239 Eh   |
          | GRADIENT NORM               0.000636711769 Eh/α |
          | HOMO-LUMO GAP               3.754908668304 eV   |
           -------------------------------------------------
########################################################################
[WARNING] Runtime exception occurred
-2- restart_readRestart: Dimension missmatch in restart file.
-1- restart_readRestart: Number of electron missmatch in restart file.
########################################################################

------------------------------------------------------------------------
 * finished run on 2024/12/10 at 16:24:29.237     
------------------------------------------------------------------------
 total:
 * wall-time:     0 d,  0 h,  0 min,  0.341 sec
 *  cpu-time:     0 d,  0 h,  0 min,  2.428 sec
 * ratio c/w:     7.126 speedup
 SCF:
 * wall-time:     0 d,  0 h,  0 min,  0.015 sec
 *  cpu-time:     0 d,  0 h,  0 min,  0.088 sec
 * ratio c/w:     5.874 speedup
 ANC optimizer:
 * wall-time:     0 d,  0 h,  0 min,  0.147 sec
 *  cpu-time:     0 d,  0 h,  0 min,  1.045 sec
 * ratio c/w:     7.120 speedup

