      -----------------------------------------------------------      
     |                   =====================                   |     
     |                           x T B                           |     
     |                   =====================                   |     
     |                         S. Grimme                         |     
     |          Mulliken Center for Theoretical Chemistry        |     
     |                    University of Bonn                     |     
      -----------------------------------------------------------      

   * xtb version 6.6.0 (conda-forge) compiled by 'runner@Mac-1676020848589.local' on 2023-02-10

   xtb is free software: you can redistribute it and/or modify it under
   the terms of the GNU Lesser General Public License as published by
   the Free Software Foundation, either version 3 of the License, or
   (at your option) any later version.
   
   xtb is distributed in the hope that it will be useful,
   but WITHOUT ANY WARRANTY; without even the implied warranty of
   MERCHANTABILITY or FITNESS FOR A PARTICULAR PURPOSE.  See the
   GNU Lesser General Public License for more details.
   
   Cite this work as:
   * C. Bannwarth, E. Caldeweyher, S. Ehlert, A. Hansen, P. Pracht,
     J. Seibert, S. Spicher, S. Grimme, WIREs Comput. Mol. Sci., 2020, 11,
     e01493. DOI: 10.1002/wcms.1493
   
   for GFN2-xTB:
   * C. Bannwarth, S. Ehlert and S. Grimme., J. Chem. Theory Comput., 2019,
     15, 1652-1671. DOI: 10.1021/acs.jctc.8b01176
   for GFN1-xTB:
   * S. Grimme, C. Bannwarth, P. Shushkov, J. Chem. Theory Comput., 2017,
     13, 1989-2009. DOI: 10.1021/acs.jctc.7b00118
   for GFN0-xTB:
   * P. Pracht, E. Caldeweyher, S. Ehlert, S. Grimme, ChemRxiv, 2019, preprint.
     DOI: 10.26434/chemrxiv.8326202.v1
   for GFN-FF:
   * S. Spicher and S. Grimme, Angew. Chem. Int. Ed., 2020, 59, 15665-15673.
     DOI: 10.1002/anie.202004239
   
   for ALPB and GBSA implicit solvation:
   * S. Ehlert, M. Stahn, S. Spicher, S. Grimme, J. Chem. Theory Comput.,
     2021, 17, 4250-4261. DOI: 10.1021/acs.jctc.1c00471
   
   for DFT-D4:
   * E. Caldeweyher, C. Bannwarth and S. Grimme, J. Chem. Phys., 2017,
     147, 034112. DOI: 10.1063/1.4993215
   * E. Caldeweyher, S. Ehlert, A. Hansen, H. Neugebauer, S. Spicher,
     C. Bannwarth and S. Grimme, J. Chem. Phys., 2019, 150, 154122.
     DOI: 10.1063/1.5090222
   * E. Caldeweyher, J.-M. Mewes, S. Ehlert and S. Grimme, Phys. Chem. Chem. Phys.
     2020, 22, 8499-8512. DOI: 10.1039/D0CP00502A
   
   for sTDA-xTB:
   * S. Grimme and C. Bannwarth, J. Chem. Phys., 2016, 145, 054103.
     DOI: 10.1063/1.4959605
   
   in the mass-spec context:
   * V. Asgeirsson, C. Bauer and S. Grimme, Chem. Sci., 2017, 8, 4879.
     DOI: 10.1039/c7sc00601b
   * J. Koopman and S. Grimme, ACS Omega 2019, 4, 12, 15120-15133.
     DOI: 10.1021/acsomega.9b02011
   
   for metadynamics refer to:
   * S. Grimme, J. Chem. Theory Comput., 2019, 155, 2847-2862
     DOI: 10.1021/acs.jctc.9b00143
   
   for SPH calculations refer to:
   * S. Spicher and S. Grimme, J. Chem. Theory Comput., 2021, 17, 1701-1714
     DOI: 10.1021/acs.jctc.0c01306
   
   with help from (in alphabetical order)
   P. Atkinson, C. Bannwarth, F. Bohle, G. Brandenburg, E. Caldeweyher
   M. Checinski, S. Dohm, S. Ehlert, S. Ehrlich, I. Gerasimov, C. Hölzer
   A. Katbashev, J. Koopman, C. Lavigne, S. Lehtola, F. März, M. Müller,
   F. Musil, H. Neugebauer, J. Pisarek, C. Plett, P. Pracht, F. Pultar,
   J. Seibert, P. Shushkov, S. Spicher, M. Stahn, M. Steiner, T. Strunk,
   J. Stückrath, T. Rose, and J. Unsleber
   
 * started run on 2024/09/29 at 18:05:17.203     

           -------------------------------------------------
          |                Calculation Setup                |
           -------------------------------------------------

          program call               : xtb --opt --gfn2 lactic_acid.xyz
          coordinate file            : lactic_acid.xyz
          omp threads                :                     8

   ID    Z sym.   atoms
    1    6 C      1-3
    2    8 O      4-6
    3    1 H      7-12

           -------------------------------------------------
          |                 G F N 2 - x T B                 |
           -------------------------------------------------

        Reference                      10.1021/acs.jctc.8b01176
      * Hamiltonian:
        H0-scaling (s, p, d)           1.850000    2.230000    2.230000
        zeta-weighting                 0.500000
      * Dispersion:
        s8                             2.700000
        a1                             0.520000
        a2                             5.000000
        s9                             5.000000
      * Repulsion:
        kExp                           1.500000    1.000000
        rExp                           1.000000
      * Coulomb:
        alpha                          2.000000
        third order                    shell-resolved
        anisotropic                    true
        a3                             3.000000
        a5                             4.000000
        cn-shift                       1.200000
        cn-exp                         4.000000
        max-rad                        5.000000


          ...................................................
          :                      SETUP                      :
          :.................................................:
          :  # basis functions                  30          :
          :  # atomic orbitals                  30          :
          :  # shells                           18          :
          :  # electrons                        36          :
          :  max. iterations                   250          :
          :  Hamiltonian                  GFN2-xTB          :
          :  restarted?                      false          :
          :  GBSA solvation                  false          :
          :  PC potential                    false          :
          :  electronic temp.          300.0000000     K    :
          :  accuracy                    1.0000000          :
          :  -> integral cutoff          0.2500000E+02      :
          :  -> integral neglect         0.1000000E-07      :
          :  -> SCF convergence          0.1000000E-05 Eh   :
          :  -> wf. convergence          0.1000000E-03 e    :
          :  Broyden damping             0.4000000          :
          ...................................................

 iter      E             dE          RMSdq      gap      omega  full diag
   1    -21.7709953 -0.217710E+02  0.467E+00    4.86       0.0  T
   2    -21.8066816 -0.356863E-01  0.235E+00    3.84       1.0  T
   3    -21.8089397 -0.225804E-02  0.151E+00    4.30       1.0  T
   4    -21.8153362 -0.639659E-02  0.199E-01    3.98       1.0  T
   5    -21.8154737 -0.137506E-03  0.844E-02    4.03       1.0  T
   6    -21.8154800 -0.623160E-05  0.247E-02    4.04       1.2  T
   7    -21.8154814 -0.140969E-05  0.108E-02    4.03       2.7  T
   8    -21.8154816 -0.182047E-06  0.387E-03    4.03       7.5  T
   9    -21.8154816 -0.131592E-07  0.103E-03    4.03      28.0  T
  10    -21.8154816 -0.288258E-08  0.592E-04    4.03      48.7  T
  11    -21.8154816 -0.187174E-08  0.239E-04    4.03     120.5  T

   *** convergence criteria satisfied after 11 iterations ***

         #    Occupation            Energy/Eh            Energy/eV
      -------------------------------------------------------------
         1        2.0000           -0.7389872             -20.1089
       ...           ...                  ...                  ...
        12        2.0000           -0.5173902             -14.0789
        13        2.0000           -0.4941478             -13.4464
        14        2.0000           -0.4832506             -13.1499
        15        2.0000           -0.4753519             -12.9350
        16        2.0000           -0.4669036             -12.7051
        17        2.0000           -0.4475195             -12.1776
        18        2.0000           -0.4204804             -11.4419 (HOMO)
        19                         -0.2722333              -7.4078 (LUMO)
        20                         -0.0499163              -1.3583
        21                          0.0430055               1.1702
        22                          0.0839194               2.2836
        23                          0.1011568               2.7526
       ...                                ...                  ...
        30                          0.4483314              12.1997
      -------------------------------------------------------------
                  HL-Gap            0.1482471 Eh            4.0340 eV
             Fermi-level           -0.3463568 Eh           -9.4248 eV

 SCC (total)                   0 d,  0 h,  0 min,  0.007 sec
 SCC setup                      ...        0 min,  0.001 sec ( 10.633%)
 Dispersion                     ...        0 min,  0.000 sec (  0.906%)
 classical contributions        ...        0 min,  0.000 sec (  1.145%)
 integral evaluation            ...        0 min,  0.000 sec (  3.263%)
 iterations                     ...        0 min,  0.005 sec ( 71.347%)
 molecular gradient             ...        0 min,  0.001 sec ( 11.212%)
 printout                       ...        0 min,  0.000 sec (  1.296%)

         :::::::::::::::::::::::::::::::::::::::::::::::::::::
         ::                     SUMMARY                     ::
         :::::::::::::::::::::::::::::::::::::::::::::::::::::
         :: total energy             -21.666230093633 Eh    ::
         :: gradient norm              0.135068203431 Eh/a0 ::
         :: HOMO-LUMO gap              4.034009866852 eV    ::
         ::.................................................::
         :: SCC energy               -21.815481586225 Eh    ::
         :: -> isotropic ES            0.072571171470 Eh    ::
         :: -> anisotropic ES          0.001071643568 Eh    ::
         :: -> anisotropic XC         -0.000374563318 Eh    ::
         :: -> dispersion             -0.006006613599 Eh    ::
         :: repulsion energy           0.149244180555 Eh    ::
         :: add. restraining           0.000000000000 Eh    ::
         :: total charge               0.000000000000 e     ::
         :::::::::::::::::::::::::::::::::::::::::::::::::::::

      ----------------------------------------------------------- 
     |                   =====================                   |
     |                        A N C O P T                        |
     |                   =====================                   |
     |               Approximate Normal Coordinate               |
     |                Rational Function Optimizer                |
      ----------------------------------------------------------- 

          ...................................................
          :                      SETUP                      :
          :.................................................:
          :   optimization level            normal          :
          :   max. optcycles                   200          :
          :   ANC micro-cycles                  20          :
          :   degrees of freedom                30          :
          :.................................................:
          :   RF solver                   davidson          :
          :   write xtbopt.log                true          :
          :   linear?                        false          :
          :   energy convergence         0.5000000E-05 Eh   :
          :   grad. convergence          0.1000000E-02 Eh/α :
          :   maxmium RF displ.          1.0000000          :
          :   Hlow (freq-cutoff)         0.1000000E-01      :
          :   Hmax (freq-cutoff)         5.0000000          :
          :   S6 in model hess.         20.0000000          :
          ...................................................

generating ANC from model Hessian ...
Using Lindh-Hessian (1995)
 Shifting diagonal of input Hessian by    4.5223666649906744E-003
 Lowest  eigenvalues of input Hessian
    0.000000    0.000000    0.000000    0.000000    0.000000    0.000000
    0.010000    0.013542    0.017647    0.019182    0.026504    0.043132
    0.051753    0.055284    0.062927    0.069310    0.086616    0.103638
 Highest eigenvalues
    1.079903    1.141929    1.218800    1.438058    1.649139    2.015140


........................................................................
.............................. CYCLE    1 ..............................
........................................................................

 iter      E             dE          RMSdq      gap      omega  full diag
   1    -21.8154816 -0.218155E+02  0.815E-05    4.03       0.0  T
   2    -21.8154816 -0.334026E-10  0.431E-05    4.03     669.3  T
   3    -21.8154816 -0.127827E-10  0.209E-05    4.03    1378.7  T
     SCC iter.                  ...        0 min,  0.001 sec
     gradient                   ...        0 min,  0.001 sec
 * total energy  :   -21.6662301 Eh     change       -0.5162661E-09 Eh
   gradient norm :     0.1350720 Eh/α   predicted     0.0000000E+00 (-100.00%)
   displ. norm   :     0.2872482 α      lambda       -0.1992631E-01
   maximum displ.:     0.1238786 α      in ANC's #13, #12, #8, ...

........................................................................
.............................. CYCLE    2 ..............................
........................................................................

 iter      E             dE          RMSdq      gap      omega  full diag
   1    -21.8546349 -0.218546E+02  0.344E-01    4.49       0.0  T
   2    -21.8548578 -0.222866E-03  0.212E-01    4.39       1.0  T
   3    -21.8548654 -0.755959E-05  0.991E-02    4.41       1.0  T
   4    -21.8548890 -0.236770E-04  0.161E-02    4.38       1.8  T
   5    -21.8548898 -0.746120E-06  0.663E-03    4.39       4.4  T
   6    -21.8548899 -0.100099E-06  0.237E-03    4.39      12.2  T
   7    -21.8548899 -0.555850E-08  0.107E-03    4.39      27.1  T
   8    -21.8548899 -0.115498E-08  0.276E-04    4.39     104.8  T
   9    -21.8548899 -0.782130E-10  0.547E-05    4.39     527.9  T
     SCC iter.                  ...        0 min,  0.003 sec
     gradient                   ...        0 min,  0.001 sec
 * total energy  :   -21.6799259 Eh     change       -0.1369581E-01 Eh
   gradient norm :     0.0459800 Eh/α   predicted    -0.1078523E-01 ( -21.25%)
   displ. norm   :     0.2312569 α      lambda       -0.4798326E-02
   maximum displ.:     0.1029478 α      in ANC's #1, #12, #7, ...

........................................................................
.............................. CYCLE    3 ..............................
........................................................................

 iter      E             dE          RMSdq      gap      omega  full diag
   1    -21.8712031 -0.218712E+02  0.209E-01    4.60       0.0  T
   2    -21.8712760 -0.729309E-04  0.130E-01    4.54       1.0  T
   3    -21.8712778 -0.180362E-05  0.538E-02    4.54       1.0  T
   4    -21.8712840 -0.616107E-05  0.105E-02    4.52       2.7  T
   5    -21.8712843 -0.304145E-06  0.355E-03    4.53       8.1  T
   6    -21.8712843 -0.364136E-07  0.130E-03    4.53      22.2  T
   7    -21.8712843 -0.218465E-08  0.524E-04    4.53      55.1  T
   8    -21.8712843 -0.198245E-09  0.148E-04    4.53     194.4  T
     SCC iter.                  ...        0 min,  0.002 sec
     gradient                   ...        0 min,  0.001 sec
 * total energy  :   -21.6822379 Eh     change       -0.2312018E-02 Eh
   gradient norm :     0.0153127 Eh/α   predicted    -0.2527473E-02 (   9.32%)
   displ. norm   :     0.1009442 α      lambda       -0.5142534E-03
   maximum displ.:     0.0597444 α      in ANC's #4, #6, #3, ...

........................................................................
.............................. CYCLE    4 ..............................
........................................................................

 iter      E             dE          RMSdq      gap      omega  full diag
   1    -21.8688467 -0.218688E+02  0.120E-01    4.48       0.0  T
   2    -21.8688591 -0.124103E-04  0.695E-02    4.49       1.0  T
   3    -21.8688588  0.252689E-06  0.201E-02    4.48       1.4  T
   4    -21.8688596 -0.708015E-06  0.412E-03    4.49       7.0  T
   5    -21.8688597 -0.120154E-06  0.179E-03    4.49      16.2  T
   6    -21.8688597 -0.916561E-09  0.388E-04    4.49      74.3  T
   7    -21.8688597 -0.547814E-09  0.104E-04    4.49     276.9  T
     SCC iter.                  ...        0 min,  0.002 sec
     gradient                   ...        0 min,  0.001 sec
 * total energy  :   -21.6825054 Eh     change       -0.2674855E-03 Eh
   gradient norm :     0.0045422 Eh/α   predicted    -0.2597469E-03 (  -2.89%)
   displ. norm   :     0.1449573 α      lambda       -0.2704593E-03
   maximum displ.:     0.1111671 α      in ANC's #1, #4, #3, ...

........................................................................
.............................. CYCLE    5 ..............................
........................................................................

 iter      E             dE          RMSdq      gap      omega  full diag
   1    -21.8665039 -0.218665E+02  0.883E-02    4.46       0.0  T
   2    -21.8665079 -0.400527E-05  0.519E-02    4.47       1.0  T
   3    -21.8665077  0.259805E-06  0.130E-02    4.46       2.2  T
   4    -21.8665085 -0.805961E-06  0.326E-03    4.46       8.9  T
   5    -21.8665085 -0.242797E-07  0.189E-03    4.46      15.3  T
   6    -21.8665085 -0.166732E-08  0.248E-04    4.46     116.2  T
   7    -21.8665085 -0.137273E-09  0.814E-05    4.46     354.5  T
     SCC iter.                  ...        0 min,  0.002 sec
     gradient                   ...        0 min,  0.001 sec
 * total energy  :   -21.6827015 Eh     change       -0.1960433E-03 Eh
   gradient norm :     0.0081964 Eh/α   predicted    -0.1380722E-03 ( -29.57%)
   displ. norm   :     0.1994734 α      lambda       -0.2576294E-03
   maximum displ.:     0.1472950 α      in ANC's #1, #4, #3, ...

........................................................................
.............................. CYCLE    6 ..............................
........................................................................

 iter      E             dE          RMSdq      gap      omega  full diag
   1    -21.8653681 -0.218654E+02  0.132E-01    4.46       0.0  T
   2    -21.8653703 -0.217224E-05  0.783E-02    4.46       1.0  T
   3    -21.8653703  0.311233E-07  0.110E-02    4.46       2.6  T
   4    -21.8653711 -0.869806E-06  0.432E-03    4.46       6.7  T
   5    -21.8653712 -0.928294E-08  0.184E-03    4.46      15.7  T
   6    -21.8653712 -0.220478E-08  0.203E-04    4.46     142.4  T
   7    -21.8653712 -0.597034E-10  0.627E-05    4.46     460.1  T
     SCC iter.                  ...        0 min,  0.001 sec
     gradient                   ...        0 min,  0.001 sec
 * total energy  :   -21.6829046 Eh     change       -0.2031115E-03 Eh
   gradient norm :     0.0116427 Eh/α   predicted    -0.1339409E-03 ( -34.06%)
   displ. norm   :     0.2854526 α      lambda       -0.3625459E-03
   maximum displ.:     0.2139724 α      in ANC's #1, #3, #4, ...

........................................................................
.............................. CYCLE    7 ..............................
........................................................................

 iter      E             dE          RMSdq      gap      omega  full diag
   1    -21.8647373 -0.218647E+02  0.199E-01    4.45       0.0  T
   2    -21.8647429 -0.557431E-05  0.118E-01    4.46       1.0  T
   3    -21.8647423  0.571090E-06  0.177E-02    4.45       1.6  T
   4    -21.8647447 -0.237915E-05  0.609E-03    4.46       4.7  T
   5    -21.8647447 -0.251755E-07  0.304E-03    4.46       9.5  T
   6    -21.8647447 -0.585919E-08  0.300E-04    4.46      96.1  T
   7    -21.8647447 -0.116874E-09  0.126E-04    4.46     228.8  T
     SCC iter.                  ...        0 min,  0.001 sec
     gradient                   ...        0 min,  0.001 sec
 * total energy  :   -21.6831778 Eh     change       -0.2732507E-03 Eh
   gradient norm :     0.0140622 Eh/α   predicted    -0.1960447E-03 ( -28.25%)
   displ. norm   :     0.2963068 α      lambda       -0.4592605E-03
   maximum displ.:     0.2263524 α      in ANC's #1, #3, #4, ...

........................................................................
.............................. CYCLE    8 ..............................
........................................................................

 iter      E             dE          RMSdq      gap      omega  full diag
   1    -21.8662060 -0.218662E+02  0.203E-01    4.49       0.0  T
   2    -21.8662109 -0.487407E-05  0.120E-01    4.48       1.0  T
   3    -21.8662121 -0.122266E-05  0.940E-03    4.48       3.1  T
   4    -21.8662122 -0.134806E-06  0.540E-03    4.49       5.3  T
   5    -21.8662123 -0.228264E-07  0.282E-03    4.48      10.2  T
   6    -21.8662123 -0.146720E-07  0.287E-04    4.48     100.5  T
   7    -21.8662123 -0.849596E-10  0.661E-05    4.48     436.8  T
     SCC iter.                  ...        0 min,  0.002 sec
     gradient                   ...        0 min,  0.001 sec
 * total energy  :   -21.6835187 Eh     change       -0.3409265E-03 Eh
   gradient norm :     0.0112008 Eh/α   predicted    -0.2497855E-03 ( -26.73%)
   displ. norm   :     0.2578319 α      lambda       -0.4974420E-03
   maximum displ.:     0.1659527 α      in ANC's #1, #4, #3, ...

........................................................................
.............................. CYCLE    9 ..............................
........................................................................

 iter      E             dE          RMSdq      gap      omega  full diag
   1    -21.8688360 -0.218688E+02  0.198E-01    4.54       0.0  T
   2    -21.8688449 -0.889482E-05  0.117E-01    4.53       1.0  T
   3    -21.8688432  0.170596E-05  0.242E-02    4.53       1.2  T
   4    -21.8688471 -0.389569E-05  0.610E-03    4.53       4.7  T
   5    -21.8688472 -0.388704E-07  0.311E-03    4.53       9.3  T
   6    -21.8688472 -0.455168E-08  0.475E-04    4.53      60.8  T
   7    -21.8688472 -0.794408E-09  0.186E-04    4.53     155.2  T
     SCC iter.                  ...        0 min,  0.002 sec
     gradient                   ...        0 min,  0.001 sec
 * total energy  :   -21.6838737 Eh     change       -0.3549370E-03 Eh
   gradient norm :     0.0059039 Eh/α   predicted    -0.2652532E-03 ( -25.27%)
   displ. norm   :     0.3467429 α      lambda       -0.3227469E-03
   maximum displ.:     0.2330571 α      in ANC's #1, #3, #4, ...

........................................................................
.............................. CYCLE   10 ..............................
........................................................................

 iter      E             dE          RMSdq      gap      omega  full diag
   1    -21.8668541 -0.218669E+02  0.265E-01    4.47       0.0  T
   2    -21.8668634 -0.930721E-05  0.157E-01    4.48       1.0  T
   3    -21.8668616  0.180024E-05  0.260E-02    4.47       1.1  T
   4    -21.8668669 -0.531072E-05  0.826E-03    4.48       3.5  T
   5    -21.8668670 -0.253694E-07  0.294E-03    4.48       9.8  T
   6    -21.8668670 -0.101144E-07  0.640E-04    4.48      45.1  T
   7    -21.8668670 -0.676632E-09  0.232E-04    4.48     124.7  T
     SCC iter.                  ...        0 min,  0.001 sec
     gradient                   ...        0 min,  0.001 sec
 * total energy  :   -21.6840024 Eh     change       -0.1287502E-03 Eh
   gradient norm :     0.0174222 Eh/α   predicted    -0.1807812E-03 (  40.41%)
   displ. norm   :     0.2151416 α      lambda       -0.6922500E-03
   maximum displ.:     0.1336771 α      in ANC's #1, #4, #3, ...

........................................................................
.............................. CYCLE   11 ..............................
........................................................................

 iter      E             dE          RMSdq      gap      omega  full diag
   1    -21.8744413 -0.218744E+02  0.161E-01    4.66       0.0  T
   2    -21.8744619 -0.205392E-04  0.952E-02    4.62       1.0  T
   3    -21.8744603  0.159420E-05  0.363E-02    4.63       1.0  T
   4    -21.8744659 -0.561378E-05  0.614E-03    4.62       4.7  T
   5    -21.8744659 -0.297366E-07  0.328E-03    4.62       8.8  T
   6    -21.8744659 -0.520979E-08  0.905E-04    4.62      31.9  T
   7    -21.8744659 -0.101763E-08  0.225E-04    4.62     128.6  T
     SCC iter.                  ...        0 min,  0.003 sec
     gradient                   ...        0 min,  0.001 sec
 * total energy  :   -21.6840932 Eh     change       -0.9080791E-04 Eh
   gradient norm :     0.0186541 Eh/α   predicted    -0.3621452E-03 ( 298.80%)
   displ. norm   :     0.2736858 α      lambda       -0.7090266E-03
   maximum displ.:     0.1897276 α      in ANC's #4, #1, #3, ...

........................................................................
.............................. CYCLE   12 ..............................
........................................................................

 iter      E             dE          RMSdq      gap      omega  full diag
   1    -21.8686145 -0.218686E+02  0.201E-01    4.59       0.0  T
   2    -21.8686236 -0.906304E-05  0.120E-01    4.60       1.0  T
   3    -21.8686268 -0.317155E-05  0.151E-02    4.59       1.9  T
   4    -21.8686272 -0.406627E-06  0.827E-03    4.60       3.5  T
   5    -21.8686272 -0.656094E-07  0.345E-03    4.60       8.4  T
   6    -21.8686273 -0.164978E-07  0.831E-04    4.60      34.7  T
   7    -21.8686273 -0.135141E-08  0.331E-04    4.60      87.3  T
     SCC iter.                  ...        0 min,  0.001 sec
     gradient                   ...        0 min,  0.001 sec
 * total energy  :   -21.6840101 Eh     change        0.8317439E-04 Eh
   gradient norm :     0.0241882 Eh/α   predicted    -0.3810678E-03 (-558.16%)
   displ. norm   :     0.1203958 α      lambda       -0.8983752E-03
   maximum displ.:     0.0875920 α      in ANC's #4, #1, #3, ...

........................................................................
.............................. CYCLE   13 ..............................
........................................................................

 iter      E             dE          RMSdq      gap      omega  full diag
   1    -21.8683885 -0.218684E+02  0.975E-02    4.51       0.0  T
   2    -21.8684105 -0.220590E-04  0.586E-02    4.53       1.0  T
   3    -21.8684115 -0.941807E-06  0.272E-02    4.52       1.1  T
   4    -21.8684121 -0.668463E-06  0.595E-03    4.53       4.9  T
   5    -21.8684123 -0.153514E-06  0.295E-03    4.53       9.8  T
   6    -21.8684123 -0.708199E-08  0.997E-04    4.53      28.9  T
   7    -21.8684123 -0.234349E-08  0.377E-04    4.53      76.5  T
     SCC iter.                  ...        0 min,  0.002 sec
     gradient                   ...        0 min,  0.001 sec
 * total energy  :   -21.6842994 Eh     change       -0.2893533E-03 Eh
   gradient norm :     0.0160948 Eh/α   predicted    -0.4557001E-03 (  57.49%)
   displ. norm   :     0.1383223 α      lambda       -0.2608170E-03
   maximum displ.:     0.0773550 α      in ANC's #3, #1, #4, ...

........................................................................
.............................. CYCLE   14 ..............................
........................................................................

 iter      E             dE          RMSdq      gap      omega  full diag
   1    -21.8718261 -0.218718E+02  0.126E-01    4.63       0.0  T
   2    -21.8718446 -0.185202E-04  0.740E-02    4.61       1.0  T
   3    -21.8718446 -0.507165E-07  0.235E-02    4.62       1.2  T
   4    -21.8718457 -0.102687E-05  0.479E-03    4.61       6.0  T
   5    -21.8718458 -0.109991E-06  0.259E-03    4.61      11.1  T
   6    -21.8718458 -0.524217E-08  0.849E-04    4.61      34.0  T
   7    -21.8718458 -0.130973E-08  0.254E-04    4.61     113.6  T
     SCC iter.                  ...        0 min,  0.001 sec
     gradient                   ...        0 min,  0.001 sec
 * total energy  :   -21.6843357 Eh     change       -0.3633045E-04 Eh
   gradient norm :     0.0067290 Eh/α   predicted    -0.1329054E-03 ( 265.82%)
   displ. norm   :     0.1442577 α      lambda       -0.1082367E-03
   maximum displ.:     0.0863966 α      in ANC's #1, #4, #3, ...

........................................................................
.............................. CYCLE   15 ..............................
........................................................................

 iter      E             dE          RMSdq      gap      omega  full diag
   1    -21.8700168 -0.218700E+02  0.110E-01    4.57       0.0  T
   2    -21.8700201 -0.324501E-05  0.658E-02    4.58       1.0  T
   3    -21.8700191  0.948368E-06  0.164E-02    4.57       1.8  T
   4    -21.8700211 -0.198778E-05  0.387E-03    4.58       7.5  T
   5    -21.8700211 -0.636215E-08  0.115E-03    4.58      25.1  T
   6    -21.8700211 -0.104137E-08  0.258E-04    4.58     111.7  T
   7    -21.8700211 -0.918519E-10  0.908E-05    4.58     317.8  T
     SCC iter.                  ...        0 min,  0.001 sec
     gradient                   ...        0 min,  0.001 sec
 * total energy  :   -21.6844016 Eh     change       -0.6588919E-04 Eh
   gradient norm :     0.0029358 Eh/α   predicted    -0.5524264E-04 ( -16.16%)
   displ. norm   :     0.0716159 α      lambda       -0.4577146E-04
   maximum displ.:     0.0463598 α      in ANC's #3, #4, #21, ...

........................................................................
.............................. CYCLE   16 ..............................
........................................................................

 iter      E             dE          RMSdq      gap      omega  full diag
   1    -21.8691346 -0.218691E+02  0.698E-02    4.57       0.0  T
   2    -21.8691420 -0.747227E-05  0.397E-02    4.57       1.0  T
   3    -21.8691421 -0.108775E-06  0.154E-02    4.57       1.9  T
   4    -21.8691423 -0.166580E-06  0.315E-03    4.57       9.2  T
   5    -21.8691424 -0.573949E-07  0.128E-03    4.57      22.6  T
   6    -21.8691424 -0.739963E-09  0.434E-04    4.57      66.5  T
   7    -21.8691424 -0.342151E-09  0.951E-05    4.57     303.4  T
     SCC iter.                  ...        0 min,  0.001 sec
     gradient                   ...        0 min,  0.001 sec
 * total energy  :   -21.6844136 Eh     change       -0.1199713E-04 Eh
   gradient norm :     0.0073722 Eh/α   predicted    -0.2300400E-04 (  91.75%)
   displ. norm   :     0.0243860 α      lambda       -0.2901647E-04
   maximum displ.:     0.0149545 α      in ANC's #1, #3, #2, ...

........................................................................
.............................. CYCLE   17 ..............................
........................................................................

 iter      E             dE          RMSdq      gap      omega  full diag
   1    -21.8695268 -0.218695E+02  0.204E-02    4.58       0.0  T
   2    -21.8695283 -0.156521E-05  0.118E-02    4.58       2.4  T
   3    -21.8695284 -0.478603E-07  0.611E-03    4.57       4.7  T
   4    -21.8695284 -0.811053E-08  0.154E-03    4.57      18.8  T
   5    -21.8695284 -0.116701E-07  0.419E-04    4.57      68.9  T
   6    -21.8695284 -0.105626E-09  0.199E-04    4.57     145.0  T
     SCC iter.                  ...        0 min,  0.001 sec
     gradient                   ...        0 min,  0.001 sec
 * total energy  :   -21.6844349 Eh     change       -0.2130355E-04 Eh
   gradient norm :     0.0039083 Eh/α   predicted    -0.1451538E-04 ( -31.86%)
   displ. norm   :     0.0531430 α      lambda       -0.2593182E-04
   maximum displ.:     0.0320469 α      in ANC's #3, #4, #2, ...

........................................................................
.............................. CYCLE   18 ..............................
........................................................................

 iter      E             dE          RMSdq      gap      omega  full diag
   1    -21.8700412 -0.218700E+02  0.444E-02    4.59       0.0  T
   2    -21.8700419 -0.719051E-06  0.264E-02    4.59       1.1  T
   3    -21.8700419 -0.443817E-07  0.375E-03    4.59       7.7  T
   4    -21.8700420 -0.462573E-07  0.137E-03    4.59      21.1  T
   5    -21.8700420 -0.308007E-08  0.722E-04    4.59      40.0  T
   6    -21.8700420 -0.304293E-09  0.188E-04    4.59     153.6  T
     SCC iter.                  ...        0 min,  0.001 sec
     gradient                   ...        0 min,  0.000 sec
 * total energy  :   -21.6844519 Eh     change       -0.1693142E-04 Eh
   gradient norm :     0.0009908 Eh/α   predicted    -0.1300185E-04 ( -23.21%)
   displ. norm   :     0.1128107 α      lambda       -0.1110092E-04
   maximum displ.:     0.0654342 α      in ANC's #3, #4, #1, ...

........................................................................
.............................. CYCLE   19 ..............................
........................................................................

 iter      E             dE          RMSdq      gap      omega  full diag
   1    -21.8694041 -0.218694E+02  0.930E-02    4.58       0.0  T
   2    -21.8694051 -0.100321E-05  0.554E-02    4.58       1.0  T
   3    -21.8694052 -0.241023E-07  0.766E-03    4.58       3.8  T
   4    -21.8694056 -0.419732E-06  0.303E-03    4.58       9.5  T
   5    -21.8694056 -0.464679E-08  0.803E-04    4.58      35.9  T
   6    -21.8694056 -0.823636E-09  0.217E-04    4.58     133.1  T
     SCC iter.                  ...        0 min,  0.001 sec
     gradient                   ...        0 min,  0.001 sec
 * total energy  :   -21.6844554 Eh     change       -0.3576651E-05 Eh
   gradient norm :     0.0023565 Eh/α   predicted    -0.5583929E-05 (  56.12%)
   displ. norm   :     0.0247387 α      lambda       -0.1167469E-04
   maximum displ.:     0.0219284 α      in ANC's #1, #2, #4, ...

........................................................................
.............................. CYCLE   20 ..............................
........................................................................

 iter      E             dE          RMSdq      gap      omega  full diag
   1    -21.8701110 -0.218701E+02  0.152E-02    4.60       0.0  T
   2    -21.8701115 -0.537990E-06  0.928E-03    4.59       3.1  T
   3    -21.8701116 -0.724331E-07  0.486E-03    4.59       5.9  T
   4    -21.8701116 -0.290597E-07  0.562E-04    4.59      51.3  T
   5    -21.8701116 -0.341835E-09  0.318E-04    4.59      90.7  T
     SCC iter.                  ...        0 min,  0.002 sec
     gradient                   ...        0 min,  0.001 sec
 * total energy  :   -21.6844601 Eh     change       -0.4681672E-05 Eh
   gradient norm :     0.0013844 Eh/α   predicted    -0.5840181E-05 (  24.75%)
   displ. norm   :     0.0160917 α      lambda       -0.2101054E-05
   maximum displ.:     0.0094149 α      in ANC's #3, #2, #4, ...
 * RMSD in coord.:     0.6869744 α      energy gain  -0.1823003E-01 Eh

generating ANC from model Hessian ...
Using Lindh-Hessian (1995)
 Shifting diagonal of input Hessian by    3.2433991452588962E-003
 Lowest  eigenvalues of input Hessian
    0.000000    0.000000    0.000000    0.000000    0.000000    0.000000
    0.010000    0.013355    0.018108    0.019387    0.025311    0.046323
    0.057570    0.062686    0.065734    0.079560    0.089482    0.121383
 Highest eigenvalues
    1.169012    1.201758    1.272339    1.508933    1.793154    2.370962


........................................................................
.............................. CYCLE   21 ..............................
........................................................................

 iter      E             dE          RMSdq      gap      omega  full diag
   1    -21.8701288 -0.218701E+02  0.131E-02    4.59       0.0  T
   2    -21.8701289 -0.730681E-07  0.762E-03    4.59       3.8  T
   3    -21.8701289  0.726572E-08  0.205E-03    4.59      14.1  T
   4    -21.8701289 -0.183961E-07  0.381E-04    4.59      75.8  T
   5    -21.8701289 -0.383285E-09  0.200E-04    4.59     144.1  T
     SCC iter.                  ...        0 min,  0.001 sec
     gradient                   ...        0 min,  0.001 sec
 * total energy  :   -21.6844619 Eh     change       -0.1783473E-05 Eh
   gradient norm :     0.0006493 Eh/α   predicted     0.0000000E+00 (-100.00%)
   displ. norm   :     0.0170124 α      lambda       -0.3348021E-05
   maximum displ.:     0.0108366 α      in ANC's #4, #3, #1, ...

   *** GEOMETRY OPTIMIZATION CONVERGED AFTER 21 ITERATIONS ***

------------------------------------------------------------------------
 total energy gain   :        -0.0182318 Eh      -11.4406 kcal/mol
 total RMSD          :         0.6869744 a0        0.3635 Å
 total power (kW/mol):        -2.2794105 (step) -700.7506 (real)
------------------------------------------------------------------------

 ANCopt (total)                0 d,  0 h,  0 min,  0.068 sec
 optimizer setup                ...        0 min,  0.000 sec (  0.111%)
 model hessian                  ...        0 min,  0.004 sec (  6.305%)
 ANC generation                 ...        0 min,  0.001 sec (  0.971%)
 coordinate transformation      ...        0 min,  0.000 sec (  0.088%)
 single point calculation       ...        0 min,  0.059 sec ( 86.486%)
 optimization log               ...        0 min,  0.001 sec (  2.024%)
 hessian update                 ...        0 min,  0.000 sec (  0.573%)
 rational function              ...        0 min,  0.002 sec (  2.338%)

================
 final structure:
================
12
 xtb: 6.6.0 (conda-forge)
C           -1.13588119928810       -0.63362737594325        0.49777037399838
C           -0.34672824956846        0.17002718747559       -0.54929787061809
C            1.10000485209119        0.24475102330704       -0.09235282640002
O            1.58927676114188        1.24171874507805        0.37156143514399
O            1.75130293734564       -0.90839919265163       -0.21766527826704
O           -0.85906382105137        1.46166468200970       -0.71886972281445
H           -0.74838963562784       -1.64612862604784        0.56022293594167
H           -1.05846401098266       -0.15486357041838        1.47173230252238
H           -2.18156744975915       -0.66225759529678        0.20590760643575
H           -0.39824803405679       -0.33958741913327       -1.51768956433732
H            2.66138929210454       -0.82623546082221        0.11158978781845
H           -0.37383144234893        2.05283760244296       -0.12290917942372

 Bond Distances (Angstroems)
 ---------------------------
C1-C2=1.5378         C1-H7=1.0859         C1-H8=1.0880         C1-H9=1.0860         C2-C1=1.5378         C2-C3=1.5190         
C2-O6=1.3998         C2-H10=1.0955        C3-C2=1.5190         C3-O4=1.2036         C3-O5=1.3303         O4-C3=1.2036         
O5-C3=1.3303         O5-H11=0.9713        O6-C2=1.3998         O6-H12=0.9696        H7-C1=1.0859         H8-C1=1.0880         
H9-C1=1.0860         H10-C2=1.0955        H11-O5=0.9713        H12-O6=0.9696        
 C  H  Rav=1.0889 sigma=0.0039  Rmin=1.0859  Rmax=1.0955     4
 C  C  Rav=1.5284 sigma=0.0094  Rmin=1.5190  Rmax=1.5378     2
 O  H  Rav=0.9704 sigma=0.0009  Rmin=0.9696  Rmax=0.9713     2
 O  C  Rav=1.3112 sigma=0.0813  Rmin=1.2036  Rmax=1.3998     3

 selected bond angles (degree)
 --------------------
H7-C1-C2=110.08                H8-C1-C2=110.06                H8-C1-H7=109.48                H9-C1-C2=108.96                
H9-C1-H7=109.54                H9-C1-H8=108.70                C3-C2-C1=108.04                O6-C2-C1=112.14                
O6-C2-C3=109.85                H10-C2-C1=109.55               H10-C2-C3=109.49               H10-C2-O6=107.75               
O4-C3-C2=122.95                O5-C3-C2=113.29                O5-C3-O4=123.73                H11-O5-C3=110.70               
H12-O6-C2=107.76               

 selected dihedral angles (degree)
 ---------------------------------
C3-C2-C1-H7=297.88            C3-C2-C1-H8= 58.63            C3-C2-C1-H9=177.74            O6-C2-C1-H7=176.67            
O6-C2-C1-H8=297.43            O6-C2-C1-H9= 56.53            H10-C2-C1-H7= 57.08           H10-C2-C1-H8=177.84           
H10-C2-C1-H9=296.94           O4-C3-C2-C1=254.69            O4-C3-C2-O6= 17.31            O4-C3-C2-H10=135.45           
O5-C3-C2-C1= 72.68            O5-C3-C2-O6=195.29            O5-C3-C2-H10=313.44           H11-O5-C3-C2=181.87           
H11-O5-C3-O4=359.84           H12-O6-C2-C1= 92.73           H12-O6-C2-C3=332.58           H12-O6-C2-H10=213.37          
           -------------------------------------------------
          |                Final Singlepoint                |
           -------------------------------------------------

          ...................................................
          :                      SETUP                      :
          :.................................................:
          :  # basis functions                  30          :
          :  # atomic orbitals                  30          :
          :  # shells                           18          :
          :  # electrons                        36          :
          :  max. iterations                   250          :
          :  Hamiltonian                  GFN2-xTB          :
          :  restarted?                      false          :
          :  GBSA solvation                  false          :
          :  PC potential                    false          :
          :  electronic temp.          300.0000000     K    :
          :  accuracy                    1.0000000          :
          :  -> integral cutoff          0.2500000E+02      :
          :  -> integral neglect         0.1000000E-07      :
          :  -> SCF convergence          0.1000000E-05 Eh   :
          :  -> wf. convergence          0.1000000E-03 e    :
          :  Broyden damping             0.4000000          :
          ...................................................

 iter      E             dE          RMSdq      gap      omega  full diag
   1    -21.8701289 -0.218701E+02  0.545E-05    4.59       0.0  T
   2    -21.8701289 -0.436273E-11  0.327E-05    4.59     883.2  T
   3    -21.8701289 -0.511591E-12  0.155E-05    4.59    1862.9  T

   *** convergence criteria satisfied after 3 iterations ***

         #    Occupation            Energy/Eh            Energy/eV
      -------------------------------------------------------------
         1        2.0000           -0.7633440             -20.7716
       ...           ...                  ...                  ...
        12        2.0000           -0.5172169             -14.0742
        13        2.0000           -0.4980894             -13.5537
        14        2.0000           -0.4921180             -13.3912
        15        2.0000           -0.4829682             -13.1422
        16        2.0000           -0.4747799             -12.9194
        17        2.0000           -0.4363426             -11.8735
        18        2.0000           -0.4202546             -11.4357 (HOMO)
        19                         -0.2516317              -6.8472 (LUMO)
        20                          0.0306546               0.8342
        21                          0.0560660               1.5256
        22                          0.0982867               2.6745
        23                          0.1319342               3.5901
       ...                                ...                  ...
        30                          0.6218756              16.9221
      -------------------------------------------------------------
                  HL-Gap            0.1686229 Eh            4.5885 eV
             Fermi-level           -0.3359432 Eh           -9.1415 eV

 SCC (total)                   0 d,  0 h,  0 min,  0.003 sec
 SCC setup                      ...        0 min,  0.000 sec (  1.612%)
 Dispersion                     ...        0 min,  0.000 sec (  1.825%)
 classical contributions        ...        0 min,  0.000 sec (  0.819%)
 integral evaluation            ...        0 min,  0.000 sec (  9.798%)
 iterations                     ...        0 min,  0.001 sec ( 33.086%)
 molecular gradient             ...        0 min,  0.001 sec ( 46.713%)
 printout                       ...        0 min,  0.000 sec (  5.833%)

         :::::::::::::::::::::::::::::::::::::::::::::::::::::
         ::                     SUMMARY                     ::
         :::::::::::::::::::::::::::::::::::::::::::::::::::::
         :: total energy             -21.684461907781 Eh    ::
         :: gradient norm              0.000649753490 Eh/a0 ::
         :: HOMO-LUMO gap              4.588462905668 eV    ::
         ::.................................................::
         :: SCC energy               -21.870128910108 Eh    ::
         :: -> isotropic ES            0.070164459703 Eh    ::
         :: -> anisotropic ES          0.001363352710 Eh    ::
         :: -> anisotropic XC         -0.001545362274 Eh    ::
         :: -> dispersion             -0.006109920042 Eh    ::
         :: repulsion energy           0.185660053451 Eh    ::
         :: add. restraining           0.000000000000 Eh    ::
         :: total charge               0.000000000000 e     ::
         :::::::::::::::::::::::::::::::::::::::::::::::::::::

           -------------------------------------------------
          |                Property Printout                |
           -------------------------------------------------

    * Orbital Energies and Occupations

         #    Occupation            Energy/Eh            Energy/eV
      -------------------------------------------------------------
         1        2.0000           -0.7633440             -20.7716
       ...           ...                  ...                  ...
         6        2.0000           -0.6135853             -16.6965
         7        2.0000           -0.6078475             -16.5404
         8        2.0000           -0.6009326             -16.3522
         9        2.0000           -0.5867814             -15.9671
        10        2.0000           -0.5431154             -14.7789
        11        2.0000           -0.5374526             -14.6248
        12        2.0000           -0.5172169             -14.0742
        13        2.0000           -0.4980894             -13.5537
        14        2.0000           -0.4921180             -13.3912
        15        2.0000           -0.4829682             -13.1422
        16        2.0000           -0.4747799             -12.9194
        17        2.0000           -0.4363426             -11.8735
        18        2.0000           -0.4202546             -11.4357 (HOMO)
        19                         -0.2516317              -6.8472 (LUMO)
        20                          0.0306546               0.8342
        21                          0.0560660               1.5256
        22                          0.0982867               2.6745
        23                          0.1319342               3.5901
        24                          0.1544727               4.2034
        25                          0.1634145               4.4467
        26                          0.1924917               5.2380
        27                          0.2247108               6.1147
        28                          0.2488304               6.7710
        29                          0.2754480               7.4953
        30                          0.6218756              16.9221
      -------------------------------------------------------------
                  HL-Gap            0.1686229 Eh            4.5885 eV
             Fermi-level           -0.3359432 Eh           -9.1415 eV

     #   Z          covCN         q      C6AA      α(0)
     1   6 C        3.755    -0.120    22.851     6.816
     2   6 C        3.726     0.093    19.141     6.247
     3   6 C        2.692     0.347    21.103     7.518
     4   8 O        0.856    -0.408    21.835     6.265
     5   8 O        1.659    -0.369    20.266     6.077
     6   8 O        1.656    -0.433    21.498     6.259
     7   1 H        0.925     0.054     2.269     2.356
     8   1 H        0.925     0.052     2.294     2.368
     9   1 H        0.925     0.068     2.103     2.268
    10   1 H        0.924     0.067     2.121     2.278
    11   1 H        0.804     0.338     0.618     1.235
    12   1 H        0.804     0.311     0.690     1.305

 Mol. C6AA /au·bohr⁶  :       1224.417042
 Mol. C8AA /au·bohr⁸  :      26158.423726
 Mol. α(0) /au        :         50.991698


Wiberg/Mayer (AO) data.
largest (>0.10) Wiberg bond orders for each atom

 ---------------------------------------------------------------------------
     #   Z sym  total        # sym  WBO       # sym  WBO       # sym  WBO
 ---------------------------------------------------------------------------
     1   6 C    3.990 --     8 H    0.986     7 H    0.985     9 H    0.981
                             2 C    0.968
     2   6 C    3.965 --     6 O    1.013     1 C    0.968     3 C    0.950
                            10 H    0.948
     3   6 C    3.909 --     4 O    1.757     5 O    1.149     2 C    0.950
     4   8 O    2.046 --     3 C    1.757     5 O    0.173
     5   8 O    2.211 --     3 C    1.149    11 H    0.860     4 O    0.173
     6   8 O    1.968 --     2 C    1.013    12 H    0.877
     7   1 H    0.997 --     1 C    0.985
     8   1 H    0.997 --     1 C    0.986
     9   1 H    0.995 --     1 C    0.981
    10   1 H    0.996 --     2 C    0.948
    11   1 H    0.886 --     5 O    0.860
    12   1 H    0.904 --     6 O    0.877
 ---------------------------------------------------------------------------

Topologies differ in total number of bonds
Writing topology from bond orders to xtbtopo.mol

molecular dipole:
                 x           y           z       tot (Debye)
 q only:        0.140      -0.819       0.220
   full:        0.427      -0.904       0.359       2.701
molecular quadrupole (traceless):
                xx          xy          yy          xz          yz          zz
 q only:        2.621      -2.514      -1.733      -1.589       0.369      -0.889
  q+dip:        3.897      -2.085      -3.781      -1.760       1.065      -0.116
   full:        3.545      -2.261      -3.490      -2.060       0.633      -0.055

           -------------------------------------------------
          |                Geometry Summary                 |
           -------------------------------------------------

      molecular mass/u    :       90.0780670
   center of mass at/Å    :        0.3662561       0.2720017      -0.1116017
  moments of inertia/u·Å² :        0.9768786E+02   0.1577158E+03   0.2162873E+03
rotational constants/cm⁻¹ :        0.1725663E+00   0.1068861E+00   0.7794093E-01

 * 10 selected distances

     #   Z          #   Z                                           value/Å
     1   6 C        2   6 C                                       1.5378476 (max)
     3   6 C        4   8 O                                       1.2035565
     3   6 C        5   8 O                                       1.3302812
     2   6 C        6   8 O                                       1.3998465
     1   6 C        7   1 H                                       1.0859139
     1   6 C        8   1 H                                       1.0880305
     1   6 C        9   1 H                                       1.0860311
     2   6 C       10   1 H                                       1.0955109
     5   8 O       11   1 H                                       0.9712966
     6   8 O       12   1 H                                       0.9695901 (min)

 * 4 distinct bonds (by element types)

   Z      Z             #   av. dist./Å        max./Å        min./Å
   1 H    6 C           4     1.0888716     1.0955109     1.0859139
   6 C    6 C           1     1.5378476     1.5378476     1.5378476
   1 H    8 O           2     0.9704434     0.9712966     0.9695901
   6 C    8 O           3     1.3112281     1.3998465     1.2035565


optimized geometry written to: xtbopt.xyz


           -------------------------------------------------
          | TOTAL ENERGY              -21.684461907781 Eh   |
          | GRADIENT NORM               0.000649753490 Eh/α |
          | HOMO-LUMO GAP               4.588462905668 eV   |
           -------------------------------------------------
########################################################################
[WARNING] Runtime exception occurred
-2- restart_readRestart: Dimension missmatch in restart file.
-1- restart_readRestart: Number of electron missmatch in restart file.
########################################################################

------------------------------------------------------------------------
 * finished run on 2024/09/29 at 18:05:17.463     
------------------------------------------------------------------------
 total:
 * wall-time:     0 d,  0 h,  0 min,  0.259 sec
 *  cpu-time:     0 d,  0 h,  0 min,  1.746 sec
 * ratio c/w:     6.728 speedup
 SCF:
 * wall-time:     0 d,  0 h,  0 min,  0.007 sec
 *  cpu-time:     0 d,  0 h,  0 min,  0.047 sec
 * ratio c/w:     6.605 speedup
 ANC optimizer:
 * wall-time:     0 d,  0 h,  0 min,  0.072 sec
 *  cpu-time:     0 d,  0 h,  0 min,  0.478 sec
 * ratio c/w:     6.649 speedup

