      -----------------------------------------------------------      
     |                   =====================                   |     
     |                           x T B                           |     
     |                   =====================                   |     
     |                         S. Grimme                         |     
     |          Mulliken Center for Theoretical Chemistry        |     
     |                    University of Bonn                     |     
      -----------------------------------------------------------      

   * xtb version 6.6.0 (conda-forge) compiled by 'runner@Mac-1676020848589.local' on 2023-02-10

   xtb is free software: you can redistribute it and/or modify it under
   the terms of the GNU Lesser General Public License as published by
   the Free Software Foundation, either version 3 of the License, or
   (at your option) any later version.
   
   xtb is distributed in the hope that it will be useful,
   but WITHOUT ANY WARRANTY; without even the implied warranty of
   MERCHANTABILITY or FITNESS FOR A PARTICULAR PURPOSE.  See the
   GNU Lesser General Public License for more details.
   
   Cite this work as:
   * C. Bannwarth, E. Caldeweyher, S. Ehlert, A. Hansen, P. Pracht,
     J. Seibert, S. Spicher, S. Grimme, WIREs Comput. Mol. Sci., 2020, 11,
     e01493. DOI: 10.1002/wcms.1493
   
   for GFN2-xTB:
   * C. Bannwarth, S. Ehlert and S. Grimme., J. Chem. Theory Comput., 2019,
     15, 1652-1671. DOI: 10.1021/acs.jctc.8b01176
   for GFN1-xTB:
   * S. Grimme, C. Bannwarth, P. Shushkov, J. Chem. Theory Comput., 2017,
     13, 1989-2009. DOI: 10.1021/acs.jctc.7b00118
   for GFN0-xTB:
   * P. Pracht, E. Caldeweyher, S. Ehlert, S. Grimme, ChemRxiv, 2019, preprint.
     DOI: 10.26434/chemrxiv.8326202.v1
   for GFN-FF:
   * S. Spicher and S. Grimme, Angew. Chem. Int. Ed., 2020, 59, 15665-15673.
     DOI: 10.1002/anie.202004239
   
   for ALPB and GBSA implicit solvation:
   * S. Ehlert, M. Stahn, S. Spicher, S. Grimme, J. Chem. Theory Comput.,
     2021, 17, 4250-4261. DOI: 10.1021/acs.jctc.1c00471
   
   for DFT-D4:
   * E. Caldeweyher, C. Bannwarth and S. Grimme, J. Chem. Phys., 2017,
     147, 034112. DOI: 10.1063/1.4993215
   * E. Caldeweyher, S. Ehlert, A. Hansen, H. Neugebauer, S. Spicher,
     C. Bannwarth and S. Grimme, J. Chem. Phys., 2019, 150, 154122.
     DOI: 10.1063/1.5090222
   * E. Caldeweyher, J.-M. Mewes, S. Ehlert and S. Grimme, Phys. Chem. Chem. Phys.
     2020, 22, 8499-8512. DOI: 10.1039/D0CP00502A
   
   for sTDA-xTB:
   * S. Grimme and C. Bannwarth, J. Chem. Phys., 2016, 145, 054103.
     DOI: 10.1063/1.4959605
   
   in the mass-spec context:
   * V. Asgeirsson, C. Bauer and S. Grimme, Chem. Sci., 2017, 8, 4879.
     DOI: 10.1039/c7sc00601b
   * J. Koopman and S. Grimme, ACS Omega 2019, 4, 12, 15120-15133.
     DOI: 10.1021/acsomega.9b02011
   
   for metadynamics refer to:
   * S. Grimme, J. Chem. Theory Comput., 2019, 155, 2847-2862
     DOI: 10.1021/acs.jctc.9b00143
   
   for SPH calculations refer to:
   * S. Spicher and S. Grimme, J. Chem. Theory Comput., 2021, 17, 1701-1714
     DOI: 10.1021/acs.jctc.0c01306
   
   with help from (in alphabetical order)
   P. Atkinson, C. Bannwarth, F. Bohle, G. Brandenburg, E. Caldeweyher
   M. Checinski, S. Dohm, S. Ehlert, S. Ehrlich, I. Gerasimov, C. Hölzer
   A. Katbashev, J. Koopman, C. Lavigne, S. Lehtola, F. März, M. Müller,
   F. Musil, H. Neugebauer, J. Pisarek, C. Plett, P. Pracht, F. Pultar,
   J. Seibert, P. Shushkov, S. Spicher, M. Stahn, M. Steiner, T. Strunk,
   J. Stückrath, T. Rose, and J. Unsleber
   
 * started run on 2024/10/27 at 13:20:24.303     

           -------------------------------------------------
          |                Calculation Setup                |
           -------------------------------------------------

          program call               : xtb acetaminophen.xyz --opt --gfn2 --alpb water
          coordinate file            : acetaminophen.xyz
          omp threads                :                     8

   ID    Z sym.   atoms
    1    6 C      1, 2, 5-10
    2    8 O      3, 11
    3    7 N      4
    4    1 H      12-20

           -------------------------------------------------
          |                 G F N 2 - x T B                 |
           -------------------------------------------------

        Reference                      10.1021/acs.jctc.8b01176
      * Hamiltonian:
        H0-scaling (s, p, d)           1.850000    2.230000    2.230000
        zeta-weighting                 0.500000
      * Dispersion:
        s8                             2.700000
        a1                             0.520000
        a2                             5.000000
        s9                             5.000000
      * Repulsion:
        kExp                           1.500000    1.000000
        rExp                           1.000000
      * Coulomb:
        alpha                          2.000000
        third order                    shell-resolved
        anisotropic                    true
        a3                             3.000000
        a5                             4.000000
        cn-shift                       1.200000
        cn-exp                         4.000000
        max-rad                        5.000000

      * Solvation model:               ALPB
        Solvent                        water
        Parameter file                 internal GFN2-xTB/ALPB
        Dielectric constant                8.0200E+01
        Reference state                gsolv [1 M gas/solution]
        Free energy shift                  1.0808E-03 Eh       6.7819E-01 kcal/mol
        Temperature                        2.9815E+02 K
        Density                            1.0000E+00 kg/L
        Solvent mass                       1.8000E+01 g/mol
        Interaction kernel             P16
        Born radius scaling (c1)           1.4744E+00
        Born radii integrator          GBOBC
        Born offset                        0.0000E+00 a0       0.0000E+00 AA
        H-bond correction              true
        Ion screening                  false
        Surface tension                    1.0000E-05 Eh       1.5569E+01 dyn/cm
        Grid points                               230 per atom

          ...................................................
          :                      SETUP                      :
          :.................................................:
          :  # basis functions                  53          :
          :  # atomic orbitals                  53          :
          :  # shells                           31          :
          :  # electrons                        58          :
          :  max. iterations                   250          :
          :  Hamiltonian                  GFN2-xTB          :
          :  restarted?                      false          :
          :  GBSA solvation                   true          :
          :  PC potential                    false          :
          :  electronic temp.          300.0000000     K    :
          :  accuracy                    1.0000000          :
          :  -> integral cutoff          0.2500000E+02      :
          :  -> integral neglect         0.1000000E-07      :
          :  -> SCF convergence          0.1000000E-05 Eh   :
          :  -> wf. convergence          0.1000000E-03 e    :
          :  Broyden damping             0.4000000          :
          ...................................................

 iter      E             dE          RMSdq      gap      omega  full diag
   1    -33.1259788 -0.331260E+02  0.465E+00    3.39       0.0  T
   2    -33.1759857 -0.500069E-01  0.248E+00    3.29       1.0  T
   3    -33.1760640 -0.782901E-04  0.101E+00    3.45       1.0  T
   4    -33.1777651 -0.170108E-02  0.274E-01    3.33       1.0  T
   5    -33.1787537 -0.988666E-03  0.898E-02    3.36       1.0  T
   6    -33.1787595 -0.571822E-05  0.409E-02    3.36       1.0  T
   7    -33.1787665 -0.708214E-05  0.194E-02    3.35       1.2  T
   8    -33.1787683 -0.176602E-05  0.605E-03    3.35       3.7  T
   9    -33.1787684 -0.999236E-07  0.352E-03    3.35       6.4  T
  10    -33.1787685 -0.707140E-07  0.135E-03    3.35      16.6  T
  11    -33.1787685 -0.504081E-08  0.560E-04    3.35      40.0  T
  12    -33.1787685 -0.878430E-09  0.144E-04    3.35     155.3  T

   *** convergence criteria satisfied after 12 iterations ***

         #    Occupation            Energy/Eh            Energy/eV
      -------------------------------------------------------------
         1        2.0000           -0.6970998             -18.9691
       ...           ...                  ...                  ...
        23        2.0000           -0.4625649             -12.5870
        24        2.0000           -0.4552271             -12.3874
        25        2.0000           -0.4290321             -11.6746
        26        2.0000           -0.4181953             -11.3797
        27        2.0000           -0.4064279             -11.0595
        28        2.0000           -0.4015997             -10.9281
        29        2.0000           -0.3697201             -10.0606 (HOMO)
        30                         -0.2464792              -6.7070 (LUMO)
        31                         -0.2294347              -6.2432
        32                         -0.2047054              -5.5703
        33                         -0.0969883              -2.6392
        34                         -0.0461823              -1.2567
       ...                                ...                  ...
        53                          0.6208839              16.8951
      -------------------------------------------------------------
                  HL-Gap            0.1232409 Eh            3.3536 eV
             Fermi-level           -0.3080997 Eh           -8.3838 eV

 SCC (total)                   0 d,  0 h,  0 min,  0.016 sec
 SCC setup                      ...        0 min,  0.001 sec (  4.640%)
 Dispersion                     ...        0 min,  0.000 sec (  1.212%)
 classical contributions        ...        0 min,  0.000 sec (  0.292%)
 integral evaluation            ...        0 min,  0.001 sec (  3.283%)
 iterations                     ...        0 min,  0.013 sec ( 79.966%)
 molecular gradient             ...        0 min,  0.002 sec (  9.634%)
 printout                       ...        0 min,  0.000 sec (  0.845%)

         :::::::::::::::::::::::::::::::::::::::::::::::::::::
         ::                     SUMMARY                     ::
         :::::::::::::::::::::::::::::::::::::::::::::::::::::
         :: total energy             -32.777954495659 Eh    ::
         :: total w/o Gsasa/hb       -32.770087755116 Eh    ::
         :: gradient norm              0.101684625386 Eh/a0 ::
         :: HOMO-LUMO gap              3.353555994888 eV    ::
         ::.................................................::
         :: SCC energy               -33.178768480240 Eh    ::
         :: -> isotropic ES            0.088923082804 Eh    ::
         :: -> anisotropic ES          0.002879858938 Eh    ::
         :: -> anisotropic XC          0.012254699668 Eh    ::
         :: -> dispersion             -0.015768780903 Eh    ::
         :: -> Gsolv                  -0.025882258603 Eh    ::
         ::    -> Gelec               -0.018015518060 Eh    ::
         ::    -> Gsasa                0.001110353110 Eh    ::
         ::    -> Ghb                 -0.010057853351 Eh    ::
         ::    -> Gshift               0.001080759698 Eh    ::
         :: repulsion energy           0.400853149282 Eh    ::
         :: add. restraining           0.000000000000 Eh    ::
         :: total charge               0.000000000000 e     ::
         :::::::::::::::::::::::::::::::::::::::::::::::::::::

      ----------------------------------------------------------- 
     |                   =====================                   |
     |                        A N C O P T                        |
     |                   =====================                   |
     |               Approximate Normal Coordinate               |
     |                Rational Function Optimizer                |
      ----------------------------------------------------------- 

          ...................................................
          :                      SETUP                      :
          :.................................................:
          :   optimization level            normal          :
          :   max. optcycles                   200          :
          :   ANC micro-cycles                  20          :
          :   degrees of freedom                54          :
          :.................................................:
          :   RF solver                   davidson          :
          :   write xtbopt.log                true          :
          :   linear?                        false          :
          :   energy convergence         0.5000000E-05 Eh   :
          :   grad. convergence          0.1000000E-02 Eh/α :
          :   maxmium RF displ.          1.0000000          :
          :   Hlow (freq-cutoff)         0.1000000E-01      :
          :   Hmax (freq-cutoff)         5.0000000          :
          :   S6 in model hess.         20.0000000          :
          ...................................................

generating ANC from model Hessian ...
Using Lindh-Hessian (1995)
 Shifting diagonal of input Hessian by    8.6292108286994545E-003
 Lowest  eigenvalues of input Hessian
    0.000000    0.000000    0.000000    0.000000    0.000000    0.000000
    0.010000    0.011113    0.011869    0.016297    0.020640    0.022724
    0.024551    0.027367    0.030724    0.035118    0.043393    0.049876
 Highest eigenvalues
    1.582966    1.793979    1.830021    1.933743    2.009624    2.028707


........................................................................
.............................. CYCLE    1 ..............................
........................................................................

 iter      E             dE          RMSdq      gap      omega  full diag
   1    -33.1787685 -0.331788E+02  0.888E-05    3.35       0.0  T
   2    -33.1787685 -0.249898E-10  0.541E-05    3.35     413.1  T
   3    -33.1787685 -0.641620E-11  0.365E-05    3.35     611.9  T
     SCC iter.                  ...        0 min,  0.002 sec
     gradient                   ...        0 min,  0.001 sec
 * total energy  :   -32.7779545 Eh     change       -0.1027800E-09 Eh
   gradient norm :     0.1016843 Eh/α   predicted     0.0000000E+00 (-100.00%)
   displ. norm   :     0.3529831 α      lambda       -0.2052306E-01
   maximum displ.:     0.1966019 α      in ANC's #8, #29, #17, ...

........................................................................
.............................. CYCLE    2 ..............................
........................................................................

 iter      E             dE          RMSdq      gap      omega  full diag
   1    -33.2313023 -0.332313E+02  0.276E-01    3.65       0.0  T
   2    -33.2315595 -0.257205E-03  0.168E-01    3.63       1.0  T
   3    -33.2315666 -0.710342E-05  0.767E-02    3.65       1.0  T
   4    -33.2315790 -0.123832E-04  0.187E-02    3.64       1.2  T
   5    -33.2315816 -0.255591E-05  0.698E-03    3.64       3.2  T
   6    -33.2315817 -0.121788E-06  0.387E-03    3.64       5.8  T
   7    -33.2315818 -0.723710E-07  0.155E-03    3.64      14.5  T
   8    -33.2315818 -0.463041E-08  0.575E-04    3.64      38.9  T
   9    -33.2315818 -0.101464E-08  0.235E-04    3.64      95.3  T
     SCC iter.                  ...        0 min,  0.006 sec
     gradient                   ...        0 min,  0.001 sec
 * total energy  :   -32.7923443 Eh     change       -0.1438978E-01 Eh
   gradient norm :     0.0422543 Eh/α   predicted    -0.1154711E-01 ( -19.75%)
   displ. norm   :     0.3580028 α      lambda       -0.6975120E-02
   maximum displ.:     0.2591324 α      in ANC's #8, #2, #17, ...

........................................................................
.............................. CYCLE    3 ..............................
........................................................................

 iter      E             dE          RMSdq      gap      omega  full diag
   1    -33.2601204 -0.332601E+02  0.213E-01    3.79       0.0  T
   2    -33.2603053 -0.184921E-03  0.131E-01    3.79       1.0  T
   3    -33.2603102 -0.492377E-05  0.615E-02    3.80       1.0  T
   4    -33.2603131 -0.290285E-05  0.165E-02    3.79       1.4  T
   5    -33.2603156 -0.242962E-05  0.477E-03    3.79       4.7  T
   6    -33.2603157 -0.722801E-07  0.245E-03    3.79       9.1  T
   7    -33.2603157 -0.308351E-07  0.962E-04    3.79      23.2  T
   8    -33.2603157 -0.178894E-08  0.412E-04    3.79      54.2  T
     SCC iter.                  ...        0 min,  0.004 sec
     gradient                   ...        0 min,  0.001 sec
 * total energy  :   -32.7960609 Eh     change       -0.3716600E-02 Eh
   gradient norm :     0.0137324 Eh/α   predicted    -0.3934547E-02 (   5.86%)
   displ. norm   :     0.2235370 α      lambda       -0.1189107E-02
   maximum displ.:     0.1612698 α      in ANC's #2, #8, #13, ...

........................................................................
.............................. CYCLE    4 ..............................
........................................................................

 iter      E             dE          RMSdq      gap      omega  full diag
   1    -33.2591329 -0.332591E+02  0.118E-01    3.75       0.0  T
   2    -33.2591608 -0.279330E-04  0.697E-02    3.77       1.0  T
   3    -33.2591612 -0.346740E-06  0.262E-02    3.77       1.0  T
   4    -33.2591626 -0.139772E-05  0.649E-03    3.77       3.4  T
   5    -33.2591630 -0.399314E-06  0.257E-03    3.77       8.7  T
   6    -33.2591630 -0.183136E-07  0.134E-03    3.77      16.7  T
   7    -33.2591630 -0.737532E-08  0.573E-04    3.77      39.0  T
   8    -33.2591630 -0.940062E-09  0.151E-04    3.77     148.4  T
     SCC iter.                  ...        0 min,  0.003 sec
     gradient                   ...        0 min,  0.001 sec
 * total energy  :   -32.7967939 Eh     change       -0.7329859E-03 Eh
   gradient norm :     0.0086444 Eh/α   predicted    -0.6242651E-03 ( -14.83%)
   displ. norm   :     0.2445551 α      lambda       -0.5928249E-03
   maximum displ.:     0.2039177 α      in ANC's #2, #3, #8, ...

........................................................................
.............................. CYCLE    5 ..............................
........................................................................

 iter      E             dE          RMSdq      gap      omega  full diag
   1    -33.2568408 -0.332568E+02  0.877E-02    3.76       0.0  T
   2    -33.2568434 -0.256732E-05  0.519E-02    3.76       1.0  T
   3    -33.2568425  0.908983E-06  0.117E-02    3.76       1.9  T
   4    -33.2568441 -0.166984E-05  0.298E-03    3.76       7.5  T
   5    -33.2568442 -0.260481E-07  0.178E-03    3.76      12.6  T
   6    -33.2568442 -0.519137E-08  0.652E-04    3.76      34.3  T
   7    -33.2568442 -0.261748E-08  0.202E-04    3.76     110.7  T
     SCC iter.                  ...        0 min,  0.002 sec
     gradient                   ...        0 min,  0.001 sec
 * total energy  :   -32.7972261 Eh     change       -0.4322460E-03 Eh
   gradient norm :     0.0097059 Eh/α   predicted    -0.3141418E-03 ( -27.32%)
   displ. norm   :     0.2094221 α      lambda       -0.3688222E-03
   maximum displ.:     0.1758049 α      in ANC's #2, #3, #1, ...

........................................................................
.............................. CYCLE    6 ..............................
........................................................................

 iter      E             dE          RMSdq      gap      omega  full diag
   1    -33.2562619 -0.332563E+02  0.688E-02    3.76       0.0  T
   2    -33.2562636 -0.168833E-05  0.403E-02    3.76       1.0  T
   3    -33.2562622  0.136427E-05  0.136E-02    3.76       1.6  T
   4    -33.2562641 -0.193121E-05  0.212E-03    3.76      10.5  T
   5    -33.2562642 -0.199917E-07  0.105E-03    3.76      21.2  T
   6    -33.2562642 -0.287437E-08  0.503E-04    3.76      44.5  T
   7    -33.2562642 -0.759130E-09  0.173E-04    3.76     129.6  T
     SCC iter.                  ...        0 min,  0.003 sec
     gradient                   ...        0 min,  0.001 sec
 * total energy  :   -32.7975267 Eh     change       -0.3005859E-03 Eh
   gradient norm :     0.0075122 Eh/α   predicted    -0.1925011E-03 ( -35.96%)
   displ. norm   :     0.2480514 α      lambda       -0.3762061E-03
   maximum displ.:     0.2091628 α      in ANC's #2, #3, #5, ...

........................................................................
.............................. CYCLE    7 ..............................
........................................................................

 iter      E             dE          RMSdq      gap      omega  full diag
   1    -33.2568185 -0.332568E+02  0.826E-02    3.76       0.0  T
   2    -33.2568203 -0.180110E-05  0.483E-02    3.76       1.0  T
   3    -33.2568184  0.190761E-05  0.156E-02    3.76       1.4  T
   4    -33.2568211 -0.266235E-05  0.235E-03    3.76       9.5  T
   5    -33.2568211 -0.158607E-07  0.118E-03    3.76      18.9  T
   6    -33.2568211 -0.346449E-08  0.562E-04    3.76      39.8  T
   7    -33.2568211 -0.105780E-08  0.179E-04    3.76     125.1  T
     SCC iter.                  ...        0 min,  0.003 sec
     gradient                   ...        0 min,  0.001 sec
 * total energy  :   -32.7978333 Eh     change       -0.3065745E-03 Eh
   gradient norm :     0.0062269 Eh/α   predicted    -0.1996818E-03 ( -34.87%)
   displ. norm   :     0.3087412 α      lambda       -0.3785428E-03
   maximum displ.:     0.2609962 α      in ANC's #2, #5, #1, ...

........................................................................
.............................. CYCLE    8 ..............................
........................................................................

 iter      E             dE          RMSdq      gap      omega  full diag
   1    -33.2572473 -0.332572E+02  0.110E-01    3.75       0.0  T
   2    -33.2572491 -0.183236E-05  0.643E-02    3.75       1.0  T
   3    -33.2572472  0.189835E-05  0.151E-02    3.75       1.5  T
   4    -33.2572500 -0.276715E-05  0.272E-03    3.75       8.2  T
   5    -33.2572500 -0.147792E-07  0.149E-03    3.75      15.0  T
   6    -33.2572500 -0.255255E-08  0.490E-04    3.75      45.6  T
   7    -33.2572500 -0.155559E-08  0.158E-04    3.75     141.2  T
     SCC iter.                  ...        0 min,  0.002 sec
     gradient                   ...        0 min,  0.001 sec
 * total energy  :   -32.7981342 Eh     change       -0.3009628E-03 Eh
   gradient norm :     0.0076499 Eh/α   predicted    -0.2073140E-03 ( -31.12%)
   displ. norm   :     0.3904513 α      lambda       -0.3969696E-03
   maximum displ.:     0.3290380 α      in ANC's #2, #5, #1, ...

........................................................................
.............................. CYCLE    9 ..............................
........................................................................

 iter      E             dE          RMSdq      gap      omega  full diag
   1    -33.2569879 -0.332570E+02  0.147E-01    3.72       0.0  T
   2    -33.2569914 -0.349319E-05  0.862E-02    3.72       1.0  T
   3    -33.2569898  0.153365E-05  0.152E-02    3.72       1.5  T
   4    -33.2569926 -0.277974E-05  0.378E-03    3.72       5.9  T
   5    -33.2569927 -0.501944E-07  0.215E-03    3.72      10.4  T
   6    -33.2569927 -0.388361E-08  0.674E-04    3.72      33.2  T
   7    -33.2569927 -0.398438E-08  0.180E-04    3.72     124.0  T
     SCC iter.                  ...        0 min,  0.003 sec
     gradient                   ...        0 min,  0.001 sec
 * total energy  :   -32.7984082 Eh     change       -0.2740202E-03 Eh
   gradient norm :     0.0100062 Eh/α   predicted    -0.2287461E-03 ( -16.52%)
   displ. norm   :     0.2148830 α      lambda       -0.2652303E-03
   maximum displ.:     0.1686129 α      in ANC's #2, #5, #34, ...

........................................................................
.............................. CYCLE   10 ..............................
........................................................................

 iter      E             dE          RMSdq      gap      omega  full diag
   1    -33.2595158 -0.332595E+02  0.916E-02    3.72       0.0  T
   2    -33.2595189 -0.310424E-05  0.537E-02    3.72       1.0  T
   3    -33.2595183  0.650000E-06  0.102E-02    3.72       2.2  T
   4    -33.2595195 -0.128665E-05  0.240E-03    3.72       9.3  T
   5    -33.2595196 -0.180211E-07  0.132E-03    3.72      17.0  T
   6    -33.2595196 -0.429660E-08  0.686E-04    3.72      32.6  T
   7    -33.2595196 -0.164262E-08  0.183E-04    3.72     121.9  T
     SCC iter.                  ...        0 min,  0.004 sec
     gradient                   ...        0 min,  0.001 sec
 * total energy  :   -32.7985950 Eh     change       -0.1867377E-03 Eh
   gradient norm :     0.0058738 Eh/α   predicted    -0.1387437E-03 ( -25.70%)
   displ. norm   :     0.3116056 α      lambda       -0.2489485E-03
   maximum displ.:     0.2302524 α      in ANC's #2, #5, #3, ...

........................................................................
.............................. CYCLE   11 ..............................
........................................................................

 iter      E             dE          RMSdq      gap      omega  full diag
   1    -33.2584463 -0.332584E+02  0.147E-01    3.66       0.0  T
   2    -33.2584572 -0.108638E-04  0.855E-02    3.67       1.0  T
   3    -33.2584564  0.710082E-06  0.164E-02    3.67       1.4  T
   4    -33.2584585 -0.207166E-05  0.376E-03    3.67       5.9  T
   5    -33.2584586 -0.107471E-06  0.206E-03    3.67      10.9  T
   6    -33.2584586 -0.499436E-08  0.626E-04    3.67      35.7  T
   7    -33.2584586 -0.226650E-08  0.250E-04    3.67      89.4  T
     SCC iter.                  ...        0 min,  0.003 sec
     gradient                   ...        0 min,  0.001 sec
 * total energy  :   -32.7987353 Eh     change       -0.1402876E-03 Eh
   gradient norm :     0.0137918 Eh/α   predicted    -0.1365658E-03 (  -2.65%)
   displ. norm   :     0.1888807 α      lambda       -0.3287026E-03
   maximum displ.:     0.1241253 α      in ANC's #3, #5, #4, ...

........................................................................
.............................. CYCLE   12 ..............................
........................................................................

 iter      E             dE          RMSdq      gap      omega  full diag
   1    -33.2617968 -0.332618E+02  0.892E-02    3.69       0.0  T
   2    -33.2618059 -0.906431E-05  0.524E-02    3.68       1.0  T
   3    -33.2618054  0.486806E-06  0.150E-02    3.68       1.5  T
   4    -33.2618068 -0.144161E-05  0.306E-03    3.68       7.3  T
   5    -33.2618069 -0.659789E-07  0.143E-03    3.68      15.6  T
   6    -33.2618069 -0.434049E-08  0.702E-04    3.68      31.8  T
   7    -33.2618069 -0.189269E-08  0.294E-04    3.68      76.1  T
     SCC iter.                  ...        0 min,  0.005 sec
     gradient                   ...        0 min,  0.001 sec
 * total energy  :   -32.7989325 Eh     change       -0.1971767E-03 Eh
   gradient norm :     0.0079450 Eh/α   predicted    -0.1702275E-03 ( -13.67%)
   displ. norm   :     0.2518580 α      lambda       -0.1872655E-03
   maximum displ.:     0.1354781 α      in ANC's #5, #2, #3, ...

........................................................................
.............................. CYCLE   13 ..............................
........................................................................

 iter      E             dE          RMSdq      gap      omega  full diag
   1    -33.2592055 -0.332592E+02  0.124E-01    3.65       0.0  T
   2    -33.2592079 -0.240089E-05  0.727E-02    3.65       1.0  T
   3    -33.2592075  0.383438E-06  0.975E-03    3.65       2.3  T
   4    -33.2592087 -0.120425E-05  0.280E-03    3.65       8.0  T
   5    -33.2592087 -0.164428E-07  0.168E-03    3.65      13.3  T
   6    -33.2592087 -0.671650E-08  0.530E-04    3.65      42.2  T
   7    -33.2592087 -0.161786E-08  0.159E-04    3.65     140.8  T
     SCC iter.                  ...        0 min,  0.003 sec
     gradient                   ...        0 min,  0.001 sec
 * total energy  :   -32.7990543 Eh     change       -0.1218504E-03 Eh
   gradient norm :     0.0093678 Eh/α   predicted    -0.9959613E-04 ( -18.26%)
   displ. norm   :     0.1811508 α      lambda       -0.2414595E-03
   maximum displ.:     0.1394556 α      in ANC's #3, #5, #8, ...

........................................................................
.............................. CYCLE   14 ..............................
........................................................................

 iter      E             dE          RMSdq      gap      omega  full diag
   1    -33.2590881 -0.332591E+02  0.881E-02    3.67       0.0  T
   2    -33.2590903 -0.220904E-05  0.518E-02    3.66       1.0  T
   3    -33.2590890  0.135829E-05  0.131E-02    3.66       1.7  T
   4    -33.2590911 -0.211633E-05  0.291E-03    3.66       7.7  T
   5    -33.2590911 -0.266613E-07  0.141E-03    3.66      15.9  T
   6    -33.2590911 -0.592721E-08  0.733E-04    3.66      30.5  T
   7    -33.2590911 -0.213608E-08  0.295E-04    3.66      75.8  T
     SCC iter.                  ...        0 min,  0.003 sec
     gradient                   ...        0 min,  0.001 sec
 * total energy  :   -32.7992059 Eh     change       -0.1515685E-03 Eh
   gradient norm :     0.0053511 Eh/α   predicted    -0.1246925E-03 ( -17.73%)
   displ. norm   :     0.1731290 α      lambda       -0.1213780E-03
   maximum displ.:     0.0951669 α      in ANC's #3, #5, #2, ...

........................................................................
.............................. CYCLE   15 ..............................
........................................................................

 iter      E             dE          RMSdq      gap      omega  full diag
   1    -33.2581367 -0.332581E+02  0.944E-02    3.65       0.0  T
   2    -33.2581384 -0.168254E-05  0.551E-02    3.65       1.0  T
   3    -33.2581374  0.930979E-06  0.109E-02    3.65       2.0  T
   4    -33.2581389 -0.146592E-05  0.211E-03    3.65      10.6  T
   5    -33.2581389 -0.163851E-07  0.127E-03    3.65      17.5  T
   6    -33.2581389 -0.368936E-08  0.497E-04    3.65      45.0  T
   7    -33.2581389 -0.810722E-09  0.133E-04    3.65     167.5  T
     SCC iter.                  ...        0 min,  0.003 sec
     gradient                   ...        0 min,  0.001 sec
 * total energy  :   -32.7992771 Eh     change       -0.7119970E-04 Eh
   gradient norm :     0.0064356 Eh/α   predicted    -0.6251279E-04 ( -12.20%)
   displ. norm   :     0.0757301 α      lambda       -0.1067405E-03
   maximum displ.:     0.0439057 α      in ANC's #1, #4, #10, ...

........................................................................
.............................. CYCLE   16 ..............................
........................................................................

 iter      E             dE          RMSdq      gap      omega  full diag
   1    -33.2601667 -0.332602E+02  0.417E-02    3.68       0.0  T
   2    -33.2601710 -0.429625E-05  0.250E-02    3.68       1.0  T
   3    -33.2601711 -0.999996E-07  0.119E-02    3.68       1.9  T
   4    -33.2601715 -0.475463E-06  0.283E-03    3.68       7.9  T
   5    -33.2601716 -0.565203E-07  0.108E-03    3.68      20.6  T
   6    -33.2601716 -0.559930E-08  0.577E-04    3.68      38.7  T
   7    -33.2601716 -0.105238E-08  0.250E-04    3.68      89.4  T
     SCC iter.                  ...        0 min,  0.005 sec
     gradient                   ...        0 min,  0.001 sec
 * total energy  :   -32.7993133 Eh     change       -0.3622359E-04 Eh
   gradient norm :     0.0058017 Eh/α   predicted    -0.5369056E-04 (  48.22%)
   displ. norm   :     0.1424019 α      lambda       -0.8711019E-04
   maximum displ.:     0.0843562 α      in ANC's #2, #3, #5, ...

........................................................................
.............................. CYCLE   17 ..............................
........................................................................

 iter      E             dE          RMSdq      gap      omega  full diag
   1    -33.2595778 -0.332596E+02  0.777E-02    3.65       0.0  T
   2    -33.2595832 -0.541243E-05  0.444E-02    3.66       1.0  T
   3    -33.2595832 -0.131294E-07  0.106E-02    3.66       2.1  T
   4    -33.2595835 -0.316358E-06  0.215E-03    3.66      10.4  T
   5    -33.2595836 -0.519557E-07  0.102E-03    3.66      21.8  T
   6    -33.2595836 -0.288357E-08  0.431E-04    3.66      51.9  T
   7    -33.2595836 -0.587740E-09  0.209E-04    3.66     107.1  T
     SCC iter.                  ...        0 min,  0.003 sec
     gradient                   ...        0 min,  0.001 sec
 * total energy  :   -32.7993561 Eh     change       -0.4284041E-04 Eh
   gradient norm :     0.0043179 Eh/α   predicted    -0.4444126E-04 (   3.74%)
   displ. norm   :     0.0495511 α      lambda       -0.3749254E-04
   maximum displ.:     0.0408991 α      in ANC's #2, #1, #3, ...

........................................................................
.............................. CYCLE   18 ..............................
........................................................................

 iter      E             dE          RMSdq      gap      omega  full diag
   1    -33.2597696 -0.332598E+02  0.188E-02    3.66       0.0  T
   2    -33.2597698 -0.264474E-06  0.109E-02    3.66       2.1  T
   3    -33.2597698  0.588783E-07  0.334E-03    3.66       6.7  T
   4    -33.2597699 -0.102167E-06  0.681E-04    3.66      32.8  T
   5    -33.2597699 -0.271181E-08  0.325E-04    3.66      68.9  T
     SCC iter.                  ...        0 min,  0.003 sec
     gradient                   ...        0 min,  0.001 sec
 * total energy  :   -32.7993834 Eh     change       -0.2724618E-04 Eh
   gradient norm :     0.0025927 Eh/α   predicted    -0.1879361E-04 ( -31.02%)
   displ. norm   :     0.1028348 α      lambda       -0.4013045E-04
   maximum displ.:     0.0652837 α      in ANC's #2, #1, #5, ...

........................................................................
.............................. CYCLE   19 ..............................
........................................................................

 iter      E             dE          RMSdq      gap      omega  full diag
   1    -33.2601526 -0.332602E+02  0.460E-02    3.66       0.0  T
   2    -33.2601531 -0.515750E-06  0.271E-02    3.66       1.0  T
   3    -33.2601529  0.156649E-06  0.432E-03    3.66       5.2  T
   4    -33.2601532 -0.261777E-06  0.901E-04    3.66      24.8  T
   5    -33.2601532 -0.349274E-08  0.515E-04    3.66      43.5  T
     SCC iter.                  ...        0 min,  0.002 sec
     gradient                   ...        0 min,  0.001 sec
 * total energy  :   -32.7994104 Eh     change       -0.2701280E-04 Eh
   gradient norm :     0.0018320 Eh/α   predicted    -0.2028045E-04 ( -24.92%)
   displ. norm   :     0.1933885 α      lambda       -0.2365108E-04
   maximum displ.:     0.1113577 α      in ANC's #2, #1, #3, ...

........................................................................
.............................. CYCLE   20 ..............................
........................................................................

 iter      E             dE          RMSdq      gap      omega  full diag
   1    -33.2595377 -0.332595E+02  0.924E-02    3.65       0.0  T
   2    -33.2595381 -0.446953E-06  0.542E-02    3.65       1.0  T
   3    -33.2595383 -0.170761E-06  0.272E-03    3.65       8.2  T
   4    -33.2595383 -0.653178E-07  0.149E-03    3.65      15.0  T
   5    -33.2595383 -0.388614E-08  0.498E-04    3.65      44.9  T
   6    -33.2595383 -0.781888E-09  0.143E-04    3.65     156.6  T
     SCC iter.                  ...        0 min,  0.002 sec
     gradient                   ...        0 min,  0.001 sec
 * total energy  :   -32.7994316 Eh     change       -0.2118084E-04 Eh
   gradient norm :     0.0027485 Eh/α   predicted    -0.1202610E-04 ( -43.22%)
   displ. norm   :     0.0868042 α      lambda       -0.2857363E-04
   maximum displ.:     0.0691711 α      in ANC's #1, #3, #2, ...
 * RMSD in coord.:     0.6957924 α      energy gain  -0.2147708E-01 Eh

generating ANC from model Hessian ...
Using Lindh-Hessian (1995)
 Shifting diagonal of input Hessian by    8.3300575116174759E-003
 Lowest  eigenvalues of input Hessian
    0.000000    0.000000    0.000000    0.000000    0.000000    0.000000
    0.010000    0.011742    0.012870    0.015880    0.023803    0.024204
    0.027665    0.029392    0.033792    0.042709    0.053377    0.054383
 Highest eigenvalues
    1.713108    1.922555    2.014608    2.040856    2.188153    2.337266


........................................................................
.............................. CYCLE   21 ..............................
........................................................................

 iter      E             dE          RMSdq      gap      omega  full diag
   1    -33.2608638 -0.332609E+02  0.358E-02    3.66       0.0  T
   2    -33.2608642 -0.372369E-06  0.213E-02    3.66       1.1  T
   3    -33.2608641  0.838792E-07  0.349E-03    3.66       6.4  T
   4    -33.2608643 -0.163356E-06  0.816E-04    3.66      27.4  T
   5    -33.2608643 -0.864752E-09  0.433E-04    3.66      51.7  T
     SCC iter.                  ...        0 min,  0.002 sec
     gradient                   ...        0 min,  0.001 sec
 * total energy  :   -32.7994444 Eh     change       -0.1287399E-04 Eh
   gradient norm :     0.0023288 Eh/α   predicted     0.0000000E+00 (-100.00%)
   displ. norm   :     0.0110013 α      lambda       -0.8828834E-05
   maximum displ.:     0.0075443 α      in ANC's #2, #1, #13, ...

........................................................................
.............................. CYCLE   22 ..............................
........................................................................

 iter      E             dE          RMSdq      gap      omega  full diag
   1    -33.2605653 -0.332606E+02  0.702E-03    3.66       0.0  T
   2    -33.2605654 -0.110535E-06  0.431E-03    3.66       5.2  T
   3    -33.2605654 -0.129523E-08  0.184E-03    3.66      12.1  T
   4    -33.2605654 -0.148571E-07  0.282E-04    3.66      79.3  T
   5    -33.2605654 -0.352493E-09  0.153E-04    3.66     145.7  T
     SCC iter.                  ...        0 min,  0.002 sec
     gradient                   ...        0 min,  0.001 sec
 * total energy  :   -32.7994510 Eh     change       -0.6561594E-05 Eh
   gradient norm :     0.0009529 Eh/α   predicted    -0.4732275E-05 ( -27.88%)
   displ. norm   :     0.0276385 α      lambda       -0.4978484E-05
   maximum displ.:     0.0203921 α      in ANC's #2, #1, #13, ...

........................................................................
.............................. CYCLE   23 ..............................
........................................................................

 iter      E             dE          RMSdq      gap      omega  full diag
   1    -33.2603047 -0.332603E+02  0.114E-02    3.65       0.0  T
   2    -33.2603049 -0.123195E-06  0.674E-03    3.66       3.3  T
   3    -33.2603048  0.279628E-07  0.255E-03    3.66       8.8  T
   4    -33.2603049 -0.510064E-07  0.393E-04    3.66      56.9  T
   5    -33.2603049 -0.111665E-08  0.193E-04    3.66     115.6  T
     SCC iter.                  ...        0 min,  0.003 sec
     gradient                   ...        0 min,  0.001 sec
 * total energy  :   -32.7994549 Eh     change       -0.3925755E-05 Eh
   gradient norm :     0.0009629 Eh/α   predicted    -0.2490763E-05 ( -36.55%)
   displ. norm   :     0.0223314 α      lambda       -0.2241000E-05
   maximum displ.:     0.0172406 α      in ANC's #2, #1, #4, ...

   *** GEOMETRY OPTIMIZATION CONVERGED AFTER 23 ITERATIONS ***

------------------------------------------------------------------------
 total energy gain   :        -0.0215004 Eh      -13.4917 kcal/mol
 total RMSD          :         0.6984703 a0        0.3696 Å
 total power (kW/mol):        -2.4543216 (step) -446.6919 (real)
------------------------------------------------------------------------

 ANCopt (total)                0 d,  0 h,  0 min,  0.126 sec
 optimizer setup                ...        0 min,  0.000 sec (  0.101%)
 model hessian                  ...        0 min,  0.004 sec (  3.277%)
 ANC generation                 ...        0 min,  0.001 sec (  0.586%)
 coordinate transformation      ...        0 min,  0.000 sec (  0.086%)
 single point calculation       ...        0 min,  0.116 sec ( 92.027%)
 optimization log               ...        0 min,  0.002 sec (  1.552%)
 hessian update                 ...        0 min,  0.000 sec (  0.167%)
 rational function              ...        0 min,  0.002 sec (  1.575%)

================
 final structure:
================
20
 xtb: 6.6.0 (conda-forge)
C            3.67795818806382        0.12720633226900       -0.34257655010252
C            2.38945656190655       -0.13257173941655        0.40331088831481
O            2.36825560630077       -0.55552719608634        1.55326154791333
N            1.28841046633583        0.14429690494123       -0.33470674184674
C           -0.06784174845275        0.03402375142767        0.00404822511744
C           -1.00697059804193        0.44214683082415       -0.93983491094791
C           -2.35910135218672        0.36226848196476       -0.67112037620779
C           -2.79960529316432       -0.13073149852665        0.55195352419430
C           -1.86272862393029       -0.54178854883631        1.49541366146063
C           -0.51143438200432       -0.46151492180514        1.22697856491209
O           -4.11924023627943       -0.23039555090361        0.86808852138519
H            3.69722347549817        1.14371777008992       -0.72524493794745
H            4.51430947816177       -0.02110188663802        0.33398837702631
H            3.76707012808647       -0.56722983644645       -1.17417298254497
H            1.45208391137431        0.49526105514111       -1.27041759671736
H           -0.67916890725991        0.82656418732766       -1.89374566829952
H           -3.07253035938762        0.68414216118890       -1.41523695647715
H           -2.21246749484478       -0.92445131579754        2.44080709882773
H            0.20518901982030       -0.78067822463919        1.96523155532546
H           -4.66866783999591        0.08636324392184        0.13527475661400

 Bond Distances (Angstroems)
 ---------------------------
C1-C2=1.5113         C1-H12=1.0863        C1-H13=1.0859        C1-H14=1.0871        C2-C1=1.5113         C2-O3=1.2254         
C2-N4=1.3541         O3-C2=1.2254         N4-C2=1.3541         N4-C5=1.4023         N4-H15=1.0127        C5-N4=1.4023         
C5-C6=1.3926         C5-C10=1.3921        C6-C5=1.3926         C6-C7=1.3809         C6-H16=1.0794        C7-C6=1.3809         
C7-C8=1.3903         C7-H17=1.0800        C8-C7=1.3903         C8-C9=1.3917         C8-O11=1.3606        C9-C8=1.3917         
C9-C10=1.3800        C9-H18=1.0782        C10-C5=1.3921        C10-C9=1.3800        C10-H19=1.0772       O11-C8=1.3606        
O11-H20=0.9691       H12-C1=1.0863        H13-C1=1.0859        H14-C1=1.0871        H15-N4=1.0127        H16-C6=1.0794        
H17-C7=1.0800        H18-C9=1.0782        H19-C10=1.0772       H20-O11=0.9691       
 C  H  Rav=1.0820 sigma=0.0039  Rmin=1.0772  Rmax=1.0871     7
 C  C  Rav=1.4056 sigma=0.0435  Rmin=1.3800  Rmax=1.5113     7
 N  H  Rav=1.0127 sigma=0.0000  Rmin=1.0127  Rmax=1.0127     1
 N  C  Rav=1.3782 sigma=0.0241  Rmin=1.3541  Rmax=1.4023     2
 O  H  Rav=0.9691 sigma=0.0000  Rmin=0.9691  Rmax=0.9691     1
 O  C  Rav=1.2930 sigma=0.0676  Rmin=1.2254  Rmax=1.3606     2

 selected bond angles (degree)
 --------------------
H12-C1-C2=110.48               H13-C1-C2=109.01               H13-C1-H12=109.49              H14-C1-C2=109.73               
H14-C1-H12=109.08              H14-C1-H13=109.04              O3-C2-C1=122.49                N4-C2-C1=112.90                
N4-C2-O3=124.61                C5-N4-C2=129.69                H15-N4-C2=116.30               H15-N4-C5=114.00               
C6-C5-N4=117.74                C10-C5-N4=123.26               C10-C5-C6=119.00               C7-C6-C5=120.76                
H16-C6-C5=119.90               H16-C6-C7=119.34               C8-C7-C6=120.13                H17-C7-C6=119.70               
H17-C7-C8=120.17               C9-C8-C7=119.20                O11-C8-C7=122.52               O11-C8-C9=118.28               
C10-C9-C8=120.67               H18-C9-C8=118.74               H18-C9-C10=120.58              C9-C10-C5=120.24               
H19-C10-C5=119.70              H19-C10-C9=120.06              

 selected dihedral angles (degree)
 ---------------------------------
O3-C2-C1-H12=233.87           O3-C2-C1-H13=354.22           O3-C2-C1-H14=113.57           N4-C2-C1-H12= 54.18           
N4-C2-C1-H13=174.53           N4-C2-C1-H14=293.88           C5-N4-C2-C1=180.06            C5-N4-C2-O3=  0.39            
H15-N4-C2-C1=359.23           H15-N4-C2-O3=179.55           C6-C5-N4-C2=177.45            C6-C5-N4-H15=358.27           
C10-C5-N4-C2=357.35           C10-C5-N4-H15=178.17          C7-C6-C5-N4=180.08            C7-C6-C5-C10=  0.17           
H16-C6-C5-N4=  0.04           H16-C6-C5-C10=180.14          C8-C7-C6-C5=359.94            C8-C7-C6-H16=179.97           
H17-C7-C6-C5=179.96           H17-C7-C6-H16=  0.00          C9-C8-C7-C6=359.92            C9-C8-C7-H17=179.90           
O11-C8-C7-C6=179.98           O11-C8-C7-H17=359.96          C10-C9-C8-C7=  0.10           C10-C9-C8-O11=180.05          
H18-C9-C8-C7=180.10           H18-C9-C8-O11=  0.04          C9-C10-C5-N4=179.95           C9-C10-C5-C6=359.85           
H19-C10-C5-N4=  0.09          H19-C10-C5-C6=179.98          C5-C10-C9-C8=  0.00           C5-C10-C9-H18=180.01          
H19-C10-C9-C8=179.88          H19-C10-C9-H18=359.88         
           -------------------------------------------------
          |                Final Singlepoint                |
           -------------------------------------------------

          ...................................................
          :                      SETUP                      :
          :.................................................:
          :  # basis functions                  53          :
          :  # atomic orbitals                  53          :
          :  # shells                           31          :
          :  # electrons                        58          :
          :  max. iterations                   250          :
          :  Hamiltonian                  GFN2-xTB          :
          :  restarted?                      false          :
          :  GBSA solvation                   true          :
          :  PC potential                    false          :
          :  electronic temp.          300.0000000     K    :
          :  accuracy                    1.0000000          :
          :  -> integral cutoff          0.2500000E+02      :
          :  -> integral neglect         0.1000000E-07      :
          :  -> SCF convergence          0.1000000E-05 Eh   :
          :  -> wf. convergence          0.1000000E-03 e    :
          :  Broyden damping             0.4000000          :
          ...................................................

 iter      E             dE          RMSdq      gap      omega  full diag
   1    -33.2603049 -0.332603E+02  0.983E-05    3.66       0.0  T
   2    -33.2603049 -0.142819E-10  0.632E-05    3.66     354.0  T
   3    -33.2603049 -0.127898E-11  0.334E-05    3.66     668.8  T

   *** convergence criteria satisfied after 3 iterations ***

         #    Occupation            Energy/Eh            Energy/eV
      -------------------------------------------------------------
         1        2.0000           -0.7073727             -19.2486
       ...           ...                  ...                  ...
        23        2.0000           -0.4686427             -12.7524
        24        2.0000           -0.4585393             -12.4775
        25        2.0000           -0.4315362             -11.7427
        26        2.0000           -0.4261342             -11.5957
        27        2.0000           -0.4072168             -11.0809
        28        2.0000           -0.3974704             -10.8157
        29        2.0000           -0.3697119             -10.0604 (HOMO)
        30                         -0.2353649              -6.4046 (LUMO)
        31                         -0.2252823              -6.1302
        32                         -0.1863618              -5.0712
        33                         -0.0841112              -2.2888
        34                          0.0134275               0.3654
       ...                                ...                  ...
        53                          0.6696874              18.2231
      -------------------------------------------------------------
                  HL-Gap            0.1343470 Eh            3.6558 eV
             Fermi-level           -0.3025384 Eh           -8.2325 eV

 SCC (total)                   0 d,  0 h,  0 min,  0.004 sec
 SCC setup                      ...        0 min,  0.000 sec (  3.701%)
 Dispersion                     ...        0 min,  0.000 sec (  1.020%)
 classical contributions        ...        0 min,  0.000 sec (  0.311%)
 integral evaluation            ...        0 min,  0.000 sec ( 10.538%)
 iterations                     ...        0 min,  0.002 sec ( 50.170%)
 molecular gradient             ...        0 min,  0.001 sec ( 31.867%)
 printout                       ...        0 min,  0.000 sec (  2.104%)

         :::::::::::::::::::::::::::::::::::::::::::::::::::::
         ::                     SUMMARY                     ::
         :::::::::::::::::::::::::::::::::::::::::::::::::::::
         :: total energy             -32.799454935495 Eh    ::
         :: total w/o Gsasa/hb       -32.792988480446 Eh    ::
         :: gradient norm              0.000961854907 Eh/a0 ::
         :: HOMO-LUMO gap              3.655768608725 eV    ::
         ::.................................................::
         :: SCC energy               -33.260304892599 Eh    ::
         :: -> isotropic ES            0.084335447553 Eh    ::
         :: -> anisotropic ES          0.001661766971 Eh    ::
         :: -> anisotropic XC          0.010172467813 Eh    ::
         :: -> dispersion             -0.015957157546 Eh    ::
         :: -> Gsolv                  -0.023348988692 Eh    ::
         ::    -> Gelec               -0.016882533643 Eh    ::
         ::    -> Gsasa                0.001093358496 Eh    ::
         ::    -> Ghb                 -0.008640573243 Eh    ::
         ::    -> Gshift               0.001080759698 Eh    ::
         :: repulsion energy           0.460896698536 Eh    ::
         :: add. restraining           0.000000000000 Eh    ::
         :: total charge               0.000000000000 e     ::
         :::::::::::::::::::::::::::::::::::::::::::::::::::::

           -------------------------------------------------
          |                Property Printout                |
           -------------------------------------------------

    * Orbital Energies and Occupations

         #    Occupation            Energy/Eh            Energy/eV
      -------------------------------------------------------------
         1        2.0000           -0.7073727             -19.2486
       ...           ...                  ...                  ...
        17        2.0000           -0.4979388             -13.5496
        18        2.0000           -0.4884461             -13.2913
        19        2.0000           -0.4862679             -13.2320
        20        2.0000           -0.4803785             -13.0718
        21        2.0000           -0.4743812             -12.9086
        22        2.0000           -0.4709481             -12.8152
        23        2.0000           -0.4686427             -12.7524
        24        2.0000           -0.4585393             -12.4775
        25        2.0000           -0.4315362             -11.7427
        26        2.0000           -0.4261342             -11.5957
        27        2.0000           -0.4072168             -11.0809
        28        2.0000           -0.3974704             -10.8157
        29        2.0000           -0.3697119             -10.0604 (HOMO)
        30                         -0.2353649              -6.4046 (LUMO)
        31                         -0.2252823              -6.1302
        32                         -0.1863618              -5.0712
        33                         -0.0841112              -2.2888
        34                          0.0134275               0.3654
        35                          0.0782431               2.1291
        36                          0.0879266               2.3926
        37                          0.1362542               3.7077
        38                          0.1556203               4.2346
        39                          0.1635387               4.4501
        40                          0.1782150               4.8495
       ...                                ...                  ...
        53                          0.6696874              18.2231
      -------------------------------------------------------------
                  HL-Gap            0.1343470 Eh            3.6558 eV
             Fermi-level           -0.3025384 Eh           -8.2325 eV

     #   Z          covCN         q      C6AA      α(0)
     1   6 C        3.759    -0.167    23.791     6.954
     2   6 C        2.746     0.284    22.189     7.713
     3   8 O        0.857    -0.516    24.134     6.586
     4   7 N        2.697    -0.166    24.583     7.364
     5   6 C        2.904     0.062    26.614     8.459
     6   6 C        2.926    -0.060    29.494     8.906
     7   6 C        2.918    -0.075    29.874     8.963
     8   6 C        2.845     0.141    24.929     8.183
     9   6 C        2.920    -0.061    29.509     8.908
    10   6 C        2.921    -0.050    29.230     8.866
    11   8 O        1.659    -0.458    22.014     6.334
    12   1 H        0.925     0.084     1.937     2.177
    13   1 H        0.925     0.075     2.029     2.228
    14   1 H        0.925     0.087     1.904     2.158
    15   1 H        0.860     0.225     0.986     1.555
    16   1 H        0.926     0.056     2.249     2.345
    17   1 H        0.926     0.054     2.271     2.357
    18   1 H        0.926     0.050     2.317     2.381
    19   1 H        0.926     0.059     2.213     2.326
    20   1 H        0.804     0.374     0.534     1.148

 Mol. C6AA /au·bohr⁶  :       4599.049199
 Mol. C8AA /au·bohr⁸  :     109074.999344
 Mol. α(0) /au        :        105.910010


Wiberg/Mayer (AO) data.
largest (>0.10) Wiberg bond orders for each atom

 ---------------------------------------------------------------------------
     #   Z sym  total        # sym  WBO       # sym  WBO       # sym  WBO
 ---------------------------------------------------------------------------
     1   6 C    3.988 --     2 C    0.990    13 H    0.983    12 H    0.966
                            14 H    0.961
     2   6 C    3.937 --     3 O    1.634     4 N    1.245     1 C    0.990
     3   8 O    1.943 --     2 C    1.634     4 N    0.164
     4   7 N    3.506 --     2 C    1.245     5 C    1.066    15 H    0.917
                             3 O    0.164
     5   6 C    3.962 --     6 C    1.368    10 C    1.367     4 N    1.066
     6   6 C    3.988 --     7 C    1.459     5 C    1.368    16 H    0.965
                             9 C    0.105
     7   6 C    3.986 --     6 C    1.459     8 C    1.365    17 H    0.965
                            10 C    0.102
     8   6 C    3.940 --     7 C    1.365     9 C    1.362    11 O    1.074
     9   6 C    3.989 --    10 C    1.464     8 C    1.362    18 H    0.968
                             6 C    0.105
    10   6 C    3.990 --     9 C    1.464     5 C    1.367    19 H    0.963
                             7 C    0.102
    11   8 O    2.068 --     8 C    1.074    20 H    0.840
    12   1 H    0.992 --     1 C    0.966
    13   1 H    0.994 --     1 C    0.983
    14   1 H    0.992 --     1 C    0.961
    15   1 H    0.949 --     4 N    0.917
    16   1 H    0.997 --     6 C    0.965
    17   1 H    0.997 --     7 C    0.965
    18   1 H    0.997 --     9 C    0.968
    19   1 H    0.997 --    10 C    0.963
    20   1 H    0.860 --    11 O    0.840
 ---------------------------------------------------------------------------

Topologies differ in total number of bonds
Writing topology from bond orders to xtbtopo.mol

molecular dipole:
                 x           y           z       tot (Debye)
 q only:       -0.466       0.897      -2.375
   full:       -0.425       1.007      -2.659       7.307
molecular quadrupole (traceless):
                xx          xy          yy          xz          yz          zz
 q only:        8.364       1.259      -2.671      -5.291       0.828      -5.693
  q+dip:        8.842       0.626      -4.183      -4.091      -0.583      -4.660
   full:        8.139       0.767      -2.241      -4.290       0.953      -5.898

           -------------------------------------------------
          |                Geometry Summary                 |
           -------------------------------------------------

      molecular mass/u    :      151.1628670
   center of mass at/Å    :       -0.2477588      -0.0874412       0.3518881
  moments of inertia/u·Å² :        0.1395349E+03   0.9148347E+03   0.1051092E+04
rotational constants/cm⁻¹ :        0.1208130E+00   0.1842697E-01   0.1603821E-01

 * 19 selected distances

     #   Z          #   Z                                           value/Å
     2   6 C        3   8 O                                       1.2254500
     2   6 C        4   7 N                                       1.3541156
     4   7 N        5   6 C                                       1.4022609 (max)
     5   6 C        6   6 C                                       1.3926389
     6   6 C        7   6 C                                       1.3808859
     7   6 C        8   6 C                                       1.3903247
     8   6 C        9   6 C                                       1.3916979
     5   6 C       10   6 C                                       1.3920819
     9   6 C       10   6 C                                       1.3800354
     8   6 C       11   8 O                                       1.3606289
     1   6 C       12   1 H                                       1.0863250
     1   6 C       13   1 H                                       1.0859186
     1   6 C       14   1 H                                       1.0870765
     4   7 N       15   1 H                                       1.0126795
     6   6 C       16   1 H                                       1.0794335
     7   6 C       17   1 H                                       1.0799506
     9   6 C       18   1 H                                       1.0782008
    10   6 C       19   1 H                                       1.0772335
    11   8 O       20   1 H                                       0.9691352 (min)

 * 6 distinct bonds (by element types)

   Z      Z             #   av. dist./Å        max./Å        min./Å
   1 H    6 C           7     1.0820198     1.0870765     1.0772335
   6 C    6 C           6     1.3879441     1.3926389     1.3800354
   1 H    7 N           1     1.0126795     1.0126795     1.0126795
   6 C    7 N           2     1.3781882     1.4022609     1.3541156
   1 H    8 O           1     0.9691352     0.9691352     0.9691352
   6 C    8 O           2     1.2930394     1.3606289     1.2254500


optimized geometry written to: xtbopt.xyz


           -------------------------------------------------
          | TOTAL ENERGY              -32.799454935495 Eh   |
          | GRADIENT NORM               0.000961854907 Eh/α |
          | HOMO-LUMO GAP               3.655768608725 eV   |
           -------------------------------------------------
########################################################################
[WARNING] Runtime exception occurred
-2- restart_readRestart: Dimension missmatch in restart file.
-1- restart_readRestart: Number of electron missmatch in restart file.
########################################################################

------------------------------------------------------------------------
 * finished run on 2024/10/27 at 13:20:24.633     
------------------------------------------------------------------------
 total:
 * wall-time:     0 d,  0 h,  0 min,  0.329 sec
 *  cpu-time:     0 d,  0 h,  0 min,  2.541 sec
 * ratio c/w:     7.727 speedup
 SCF:
 * wall-time:     0 d,  0 h,  0 min,  0.017 sec
 *  cpu-time:     0 d,  0 h,  0 min,  0.114 sec
 * ratio c/w:     6.717 speedup
 ANC optimizer:
 * wall-time:     0 d,  0 h,  0 min,  0.132 sec
 *  cpu-time:     0 d,  0 h,  0 min,  1.034 sec
 * ratio c/w:     7.848 speedup

