20
 energy: -32.799454935495 gnorm: 0.000961854907 xtb: 6.6.0 (conda-forge)
C            3.67795818806382        0.12720633226900       -0.34257655010252
C            2.38945656190655       -0.13257173941655        0.40331088831481
O            2.36825560630077       -0.55552719608634        1.55326154791333
N            1.28841046633583        0.14429690494123       -0.33470674184674
C           -0.06784174845275        0.03402375142767        0.00404822511744
C           -1.00697059804193        0.44214683082415       -0.93983491094791
C           -2.35910135218672        0.36226848196476       -0.67112037620779
C           -2.79960529316432       -0.13073149852665        0.55195352419430
C           -1.86272862393029       -0.54178854883631        1.49541366146063
C           -0.51143438200432       -0.46151492180514        1.22697856491209
O           -4.11924023627943       -0.23039555090361        0.86808852138519
H            3.69722347549817        1.14371777008992       -0.72524493794745
H            4.51430947816177       -0.02110188663802        0.33398837702631
H            3.76707012808647       -0.56722983644645       -1.17417298254497
H            1.45208391137431        0.49526105514111       -1.27041759671736
H           -0.67916890725991        0.82656418732766       -1.89374566829952
H           -3.07253035938762        0.68414216118890       -1.41523695647715
H           -2.21246749484478       -0.92445131579754        2.44080709882773
H            0.20518901982030       -0.78067822463919        1.96523155532546
H           -4.66866783999591        0.08636324392184        0.13527475661400
