12
 energy: -21.666230094149 gnorm: 0.135072027257 xtb: 6.6.0 (conda-forge)
C           -1.23410000000000       -0.49260000000000        0.53060000000000
C           -0.28900000000000        0.09750000000000       -0.52050000000000
C            1.12920000000000        0.11550000000000       -0.02310000000000
O            1.46210000000000        0.87560000000000        0.92610000000000
O            2.07560000000000       -0.72450000000000       -0.60180000000000
O           -0.69940000000000        1.38700000000000       -0.90080000000000
H           -0.93250000000000       -1.53400000000000        0.77370000000000
H           -1.21670000000000        0.11420000000000        1.46140000000000
H           -2.27170000000000       -0.50930000000000        0.13490000000000
H           -0.33570000000000       -0.55190000000000       -1.42130000000000
H            3.03440000000000       -0.73020000000000       -0.27470000000000
H           -0.72240000000000        1.95260000000000       -0.08450000000000
12
 energy: -21.679925904400 gnorm: 0.045980402054 xtb: 6.6.0 (conda-forge)
C           -1.21806665986304       -0.50413539600094        0.53339927901828
C           -0.28200844643990        0.08315255729612       -0.52736790077352
C            1.13272091061982        0.11849333110048        0.00719900402788
O            1.47245260797753        0.86155923164689        0.90690923954448
O            2.01298935214438       -0.71520854773259       -0.59494598597249
O           -0.67780426306527        1.37705333925987       -0.89941203262211
H           -0.93343356479273       -1.52905469765778        0.78025258034322
H           -1.19542491647659        0.09810608040976        1.44632424840490
H           -2.23897938593639       -0.50677873148987        0.14326081400050
H           -0.32200200483884       -0.53517607398509       -1.43744674068478
H            2.93889255486601       -0.68193668660869       -0.25992272014849
H           -0.68953618419497        1.93382559376184       -0.09824978513787
12
 energy: -21.682237922754 gnorm: 0.015313083802 xtb: 6.6.0 (conda-forge)
C           -1.20748236436705       -0.51698703187581        0.53205284355560
C           -0.28124182867650        0.08013479049370       -0.53310493231666
C            1.14014437902915        0.14073110794174        0.01316562734385
O            1.47945666769166        0.86144084603809        0.90529465214392
O            1.96018152698380       -0.71878418065000       -0.58874193902494
O           -0.68133164804614        1.37453383301495       -0.90135142031848
H           -0.91420928762387       -1.53303702598435        0.77086282317945
H           -1.16207757639253        0.08609462204764        1.43596408217155
H           -2.22729871272671       -0.51723691491466        0.15803927138955
H           -0.30578714069414       -0.52030024856766       -1.44616057307903
H            2.85964386216886       -0.66997446929687       -0.23222590862755
H           -0.66019787734653        1.93328467175324       -0.11379452641727
12
 energy: -21.682505408251 gnorm: 0.004542459210 xtb: 6.6.0 (conda-forge)
C           -1.20696639307994       -0.52248148699132        0.53113912575376
C           -0.28678593803740        0.08261796829764       -0.53394982358813
C            1.13311328832780        0.13167621919802        0.02463374624481
O            1.48542722269682        0.88493547371473        0.89233719655691
O            1.94764732669307       -0.73063898699249       -0.57880486669414
O           -0.68758174058000        1.37828440585857       -0.90277870583238
H           -0.90953290219228       -1.54158771836483        0.75768423517384
H           -1.15301694937353        0.07316050923817        1.44041000679761
H           -2.22907379593885       -0.52005608484459        0.16290426679222
H           -0.30268839188062       -0.51529441570466       -1.44823547485672
H            2.84940320729698       -0.66362179846247       -0.22628312205643
H           -0.64014493393205        1.94290591505324       -0.11905658429135
12
 energy: -21.682701451538 gnorm: 0.008198100767 xtb: 6.6.0 (conda-forge)
C           -1.20142104954337       -0.52945158506040        0.52965976583746
C           -0.29358672956004        0.09070723821669       -0.53820224957614
C            1.13076778740491        0.14426994431964        0.01295080325332
O            1.48782657357647        0.91019398695643        0.87232734257196
O            1.93684497646307       -0.74677669525940       -0.56239417100182
O           -0.70715221962932        1.38443443416919       -0.90107675306016
H           -0.89600474991968       -1.55147045233668        0.73999055090137
H           -1.14009086031666        0.05492402725246        1.44682902434174
H           -2.22878154955479       -0.52823913873292        0.17440489126040
H           -0.30350206867463       -0.50409766661221       -1.45453262446076
H            2.83630025788404       -0.68021701888122       -0.19816383819324
H           -0.62140036813001        1.95562292596841       -0.12179274187414
12
 energy: -21.682904563068 gnorm: 0.011646875726 xtb: 6.6.0 (conda-forge)
C           -1.19301399857904       -0.53920231945058        0.52690623015890
C           -0.30089042064693        0.10050323631955       -0.54394080276999
C            1.12731333469762        0.15898255324105       -0.00067522672140
O            1.49058352981243        0.94850602395693        0.83568467007319
O            1.92324567149870       -0.76808269923062       -0.53532799627234
O           -0.73252437020989        1.39182779153278       -0.89309495558727
H           -0.88122794107399       -1.56466707321966        0.71574409199994
H           -1.12263985275879        0.03005719672811        1.45358830814214
H           -2.22599121852672       -0.53574952952802        0.18717750274326
H           -0.30844611081637       -0.48939708841200       -1.46337327776762
H            2.81955755603074       -0.70128722786058       -0.16072927735320
H           -0.59616617942775        1.96840913592304       -0.12195926664562
12
 energy: -21.683177813725 gnorm: 0.014074247101 xtb: 6.6.0 (conda-forge)
C           -1.17953308030515       -0.55331416339469        0.52220428376027
C           -0.30851520484983        0.11359363917544       -0.55194331280355
C            1.12249747382581        0.17970027330620       -0.01904319959305
O            1.49588001526402        1.00695504801225        0.77669193802957
O            1.90260741612267       -0.79838826596816       -0.49247846754963
O           -0.76288567712162        1.40259126788499       -0.87614615247165
H           -0.86217648806610       -1.58234124078649        0.68311843496521
H           -1.09699162326964       -0.00381728180643        1.46024641454664
H           -2.21871633233401       -0.54445869309843        0.20141808557572
H           -0.31831473511216       -0.46782447851802       -1.47701822404367
H            2.79499678824432       -0.73344607849372       -0.10881589247815
H           -0.56904855239832        1.98064997368707       -0.11823390793772
12
 energy: -21.683518740233 gnorm: 0.011218518194 xtb: 6.6.0 (conda-forge)
C           -1.16342146750617       -0.56794466336108        0.51678734514053
C           -0.31490418814104        0.12613046022548       -0.56104146975827
C            1.11612137537038        0.19867540676106       -0.03745809356683
O            1.50051445204341        1.06191696305936        0.71101507817071
O            1.87858807742834       -0.82469383896248       -0.44525960970075
O           -0.79014896892204        1.41348220315093       -0.85408708762090
H           -0.84030789326151       -1.59793947804337        0.65156204363638
H           -1.06725332651619       -0.03593487073618        1.46330809619245
H           -2.20792270002050       -0.55416746736702        0.21479490054112
H           -0.33290828875710       -0.44427433841071       -1.49317718663772
H            2.76595719764358       -0.76597397034233       -0.05244377381189
H           -0.54451426936118        1.99062359402632       -0.11400024258482
12
 energy: -21.683873677237 gnorm: 0.005921931299 xtb: 6.6.0 (conda-forge)
C           -1.15190369210902       -0.58249017429377        0.51214449503065
C           -0.32018142507885        0.13331756597720       -0.56557225081358
C            1.10814693312320        0.20864264159658       -0.04740720532776
O            1.50816822106661        1.10782347633888        0.64730577285738
O            1.85203008517524       -0.84065397196324       -0.40151277777380
O           -0.80699703797560        1.42004034583293       -0.82980099170052
H           -0.82322016984357       -1.61090309168137        0.62612539975163
H           -1.04600982314415       -0.06297748143282        1.46283949421252
H           -2.19810769961096       -0.56682100572361        0.22126078672304
H           -0.35074368398652       -0.42516832272646       -1.50471453231407
H            2.73695286372318       -0.78181902697177       -0.00818714201421
H           -0.50833457133957        2.00090904504743       -0.11248104863128
12
 energy: -21.684002427445 gnorm: 0.017518199299 xtb: 6.6.0 (conda-forge)
C           -1.13812230983432       -0.60087561412645        0.50661979409377
C           -0.32749284183815        0.14745820016429       -0.56899701368551
C            1.10104354346116        0.22525923090686       -0.06356772556056
O            1.52495672561587        1.17165123785892        0.56074794536022
O            1.81544453500300       -0.87326327325215       -0.33919984057612
O           -0.82887269318395        1.43371849979096       -0.80002106988602
H           -0.79716359727592       -1.62868413481761        0.59084481241284
H           -1.02491926218677       -0.10167745242923        1.46717182811941
H           -2.18726956319022       -0.58765234432378        0.22815420723386
H           -0.36926053649300       -0.39639843649638       -1.51691859612424
H            2.70276330389052       -0.80687465157371        0.04673593358267
H           -0.47130730396824        2.01723873829827       -0.11157027497033
12
 energy: -21.684093235353 gnorm: 0.018711265539 xtb: 6.6.0 (conda-forge)
C           -1.12890464068056       -0.61089729999974        0.50388406575987
C           -0.33072431905083        0.15822340190264       -0.56795966940278
C            1.09752147580045        0.23232796738858       -0.07613683785428
O            1.53892114625917        1.18513649246513        0.50146536015655
O            1.78693833090617       -0.88537724548693       -0.29333091008114
O           -0.83466897160680        1.44486653951453       -0.77476576250570
H           -0.77292045431946       -1.63271041422400        0.57666714405574
H           -1.01948640651941       -0.11964086460518        1.46689702081030
H           -2.17787022724374       -0.61070024575715        0.22724765155496
H           -0.38649401956119       -0.37408849465860       -1.52244924194855
H            2.68105731247207       -0.81606976066568        0.07828112651910
H           -0.45356922645591        2.02882992412638       -0.11979994706409
12
 energy: -21.684010060967 gnorm: 0.024215668171 xtb: 6.6.0 (conda-forge)
C           -1.12387273492370       -0.62725855772330        0.50078326054127
C           -0.34221275682469        0.16580997330637       -0.56806332344331
C            1.09041513196445        0.24278080488454       -0.08816553721415
O            1.55034653356482        1.21773918790477        0.43971907052308
O            1.76058138057424       -0.89521339477901       -0.25037006551438
O           -0.86284484047337        1.45060217653113       -0.75114192890845
H           -0.75236110204513       -1.64558968243874        0.55487212659446
H           -1.01423392832009       -0.14839206058679        1.47005036129602
H           -2.17492368630688       -0.63615733667183        0.23084773778308
H           -0.40438323071231       -0.35598111656662       -1.52823363284600
H            2.65632271442352       -0.82122903441063        0.11835229208978
H           -0.38303348092091        2.05278904055008       -0.12865036090141
12
 energy: -21.684299414228 gnorm: 0.016170348364 xtb: 6.6.0 (conda-forge)
C           -1.13291906038480       -0.62117426556094        0.50015249744665
C           -0.33799514400259        0.16187703385860       -0.56140165095257
C            1.09853938983487        0.23669430973661       -0.08161208551931
O            1.56607496936585        1.22263534679534        0.44400998250313
O            1.77093675079799       -0.89699564466169       -0.26140675565640
O           -0.84819605540885        1.44922699008527       -0.75439874306936
H           -0.76773205792622       -1.64198024151776        0.55795603155319
H           -1.02662707239754       -0.14210739797680        1.47115037642224
H           -2.18302478496758       -0.62576863033034        0.22482632924338
H           -0.39017347952761       -0.36234626843552       -1.52035992435860
H            2.66901798489538       -0.81965101403135        0.10003730204101
H           -0.41810144027893        2.03948978203858       -0.11895335965337
12
 energy: -21.684335744674 gnorm: 0.006771351808 xtb: 6.6.0 (conda-forge)
C           -1.13521518532423       -0.61402657407424        0.50274577496526
C           -0.33625481897952        0.15856589232602       -0.56206639223210
C            1.10126879687968        0.23390671515588       -0.07826875152218
O            1.55462432717601        1.19422613282515        0.48212587791785
O            1.78517556579663       -0.88694153739218       -0.28505428721609
O           -0.84342199031427        1.44624273713670       -0.76769909952690
H           -0.77342818524493       -1.63472094505385        0.57451344661684
H           -1.03381757203347       -0.12568511969265        1.46957240901076
H           -2.18413248441172       -0.61961534294950        0.22225534250212
H           -0.38264989876161       -0.37177510715964       -1.51782765042543
H            2.68214853283372       -0.81494081260093        0.07946867747907
H           -0.43449708761632        2.03466396147923       -0.11976534756920
12
 energy: -21.684401633860 gnorm: 0.002948464758 xtb: 6.6.0 (conda-forge)
C           -1.13080754932839       -0.62195788995609        0.50055866529258
C           -0.33996014612564        0.16431168774528       -0.56163510038119
C            1.09895613675027        0.24041860211540       -0.08539025774126
O            1.56369315379995        1.21661554541646        0.44352477677141
O            1.76924753443184       -0.89856916993916       -0.25784313447967
O           -0.85228709642950        1.45217893647136       -0.75301772897833
H           -0.76185576682038       -1.64100874273097        0.56273117167228
H           -1.03071191582283       -0.14052458374091        1.47071128880456
H           -2.18024781474978       -0.63197734550757        0.22254790161254
H           -0.39057476275664       -0.35928442315583       -1.52158795879474
H            2.66898049842646       -0.82291855130285        0.10002704694182
H           -0.41463227137542        2.04261593458486       -0.12062667072002
12
 energy: -21.684413630994 gnorm: 0.007405767751 xtb: 6.6.0 (conda-forge)
C           -1.13368484340763       -0.62561777611699        0.49968131798119
C           -0.34214449748385        0.16460159925372       -0.55727865905074
C            1.09895584358816        0.23994136323408       -0.08580894986436
O            1.57311253854172        1.22629343235662        0.42209630832747
O            1.76334200685193       -0.89973958085503       -0.24668521796325
O           -0.85331762306375        1.45336055778452       -0.74379906743182
H           -0.76049099095272       -1.64347855974194        0.55936890157722
H           -1.03811781002013       -0.14648119080074        1.47161283901468
H           -2.18244141405080       -0.63937481136568        0.21861251731532
H           -0.39295248793773       -0.35539039250579       -1.51938032776694
H            2.66633161576434       -0.82046536032961        0.10325499599491
H           -0.39879233782957        2.04625071908681       -0.12167465813371
12
 energy: -21.684434934539 gnorm: 0.003931323578 xtb: 6.6.0 (conda-forge)
C           -1.13296008411527       -0.62645830801411        0.49926917779881
C           -0.34281547773452        0.16618567162766       -0.55687240893199
C            1.09934924198804        0.24157731535637       -0.08778173862409
O            1.57480026002667        1.22811126196939        0.41533065410575
O            1.76143719693265       -0.90208039830270       -0.24181401684874
O           -0.85480248765331        1.45542166638983       -0.74071075925386
H           -0.75726207268440       -1.64347996135579        0.55948119328077
H           -1.03991835752737       -0.14743039642271        1.47164197161609
H           -2.18159650913599       -0.64280434332070        0.21727992283455
H           -0.39353257924453       -0.35243955050100       -1.51994801927939
H            2.66540587281295       -0.82359532786221        0.10547171679968
H           -0.39830500366496        2.04689237043594       -0.12134769349760
12
 energy: -21.684451865955 gnorm: 0.000992087565 xtb: 6.6.0 (conda-forge)
C           -1.13410239435010       -0.62881050848038        0.49862628254718
C           -0.34445185139276        0.16784325307491       -0.55379001958112
C            1.10022610395618        0.24308492168065       -0.08987144301563
O            1.58063791368121        1.23246418699785        0.39932930323707
O            1.75770824757047       -0.90473714769004       -0.23257231091250
O           -0.85624675359872        1.45831737390704       -0.73279588628269
H           -0.75344236608370       -1.64389595467992        0.56080859634736
H           -1.04824645116875       -0.14935971476179        1.47157939345975
H           -2.18157880409575       -0.65086733696442        0.21225357239074
H           -0.39463614655434       -0.34752156096174       -1.51894543896653
H            2.66464605466079       -0.82540766473591        0.10661402580195
H           -0.39071355262458        2.04879015261371       -0.12123607502561
12
 energy: -21.684455442606 gnorm: 0.002377150228 xtb: 6.6.0 (conda-forge)
C           -1.13477681164747       -0.63466119660248        0.49717643999124
C           -0.34770893733317        0.17143354191932       -0.54940861631860
C            1.10011921802243        0.24629539688808       -0.09436043868776
O            1.59135274805958        1.24559777478659        0.36460176132551
O            1.74806732587210       -0.91081752596524       -0.21191604102439
O           -0.86081413689369        1.46341929296572       -0.71689834877425
H           -0.74516795837683       -1.64677626797518        0.55808457632007
H           -1.05811606776495       -0.15717034708890        1.47211557277675
H           -2.18089909672041       -0.66506048162149        0.20594265431299
H           -0.39929855056218       -0.33715886641502       -1.51862874320835
H            2.65925975022403       -0.82920403198756        0.11538662022986
H           -0.37221748287949        2.05400271109612       -0.12209543694310
12
 energy: -21.684460124278 gnorm: 0.001392182198 xtb: 6.6.0 (conda-forge)
C           -1.13692580621505       -0.63393320651648        0.49763417896322
C           -0.34730770000645        0.17012918354926       -0.54796198166574
C            1.10058511150004        0.24465663984225       -0.09257106149356
O            1.59130555403642        1.24245176822815        0.36766962989308
O            1.75083461158686       -0.90845350463724       -0.21575130838818
O           -0.85881699038044        1.46239720835793       -0.71706406498736
H           -0.74753258902263       -1.64583818199442        0.56146033249450
H           -1.06266627146292       -0.15457023104349        1.47182390375254
H           -2.18220198198398       -0.66486356682002        0.20371335456368
H           -0.39805551508273       -0.33871854941975       -1.51691464110469
H            2.66226675238215       -0.82642284425972        0.11022662443148
H           -0.37168517535132        2.05306528471349       -0.12226496645899
12
 energy: -21.684461907752 gnorm: 0.000649349219 xtb: 6.6.0 (conda-forge)
C           -1.13588119928810       -0.63362737594325        0.49777037399838
C           -0.34672824956846        0.17002718747559       -0.54929787061809
C            1.10000485209119        0.24475102330704       -0.09235282640002
O            1.58927676114188        1.24171874507805        0.37156143514399
O            1.75130293734564       -0.90839919265163       -0.21766527826704
O           -0.85906382105137        1.46166468200970       -0.71886972281445
H           -0.74838963562784       -1.64612862604784        0.56022293594167
H           -1.05846401098266       -0.15486357041838        1.47173230252238
H           -2.18156744975915       -0.66225759529678        0.20590760643575
H           -0.39824803405679       -0.33958741913327       -1.51768956433732
H            2.66138929210454       -0.82623546082221        0.11158978781845
H           -0.37383144234893        2.05283760244296       -0.12290917942372
