8
 energy: -7.334292129841 gnorm: 0.036987620831 xtb: 6.6.0 (conda-forge)
C           -0.75300000000000       -0.09470000000000        0.03230000000000
C            0.75300000000000        0.09470000000000       -0.03230000000000
H           -1.15510000000000       -0.26520000000000       -0.98860000000000
H           -1.22810000000000        0.81130000000000        0.46390000000000
H           -0.99510000000000       -0.97120000000000        0.66970000000000
H            0.99510000000000        0.97120000000000       -0.66970000000000
H            1.15510000000000        0.26520000000000        0.98860000000000
H            1.22810000000000       -0.81130000000000       -0.46390000000000
8
 energy: -7.336283347765 gnorm: 0.007234379605 xtb: 6.6.0 (conda-forge)
C           -0.75382421462721       -0.09482045483580        0.03236029968685
C            0.75382421463217        0.09482045478176       -0.03236029972986
H           -1.17032698786955       -0.26412764307297       -0.96213842622771
H           -1.24159278735739        0.78563219838203        0.45427669866892
H           -1.01432788252132       -0.95257777234182        0.65494434302159
H            1.01432788252383        0.95257777235369       -0.65494434302419
H            1.17032698788095        0.26412764308131        0.96213842625567
H            1.24159278733852       -0.78563219834819       -0.45427669865127
8
 energy: -7.336365802459 gnorm: 0.001883897217 xtb: 6.6.0 (conda-forge)
C           -0.75271726638726       -0.09469243922442        0.03230875112292
C            0.75271726638956        0.09469243919961       -0.03230875114267
H           -1.16066980858446       -0.26278083425904       -0.96155427241280
H           -1.23186510226791        0.78592717219097        0.45345309926751
H           -1.00479499542136       -0.95055000724479        0.65392937753442
H            1.00479499541559        0.95055000725333       -0.65392937752527
H            1.16066980856981        0.26278083426722        0.96155427241793
H            1.23186510228602       -0.78592717218288       -0.45345309926204
8
 energy: -7.336370297251 gnorm: 0.000448079472 xtb: 6.6.0 (conda-forge)
C           -0.75411057153403       -0.09487359809892        0.03237084362973
C            0.75411057153396        0.09487359809824       -0.03237084363076
H           -1.16244715466705       -0.26306396200510       -0.96197300538802
H           -1.23367543041596        0.78616039666206        0.45372861025751
H           -1.00650499992590       -0.95117135667968        0.65430269519813
H            1.00650499992521        0.95117135667946       -0.65430269519847
H            1.16244715466547        0.26306396200484        0.96197300538912
H            1.23367543041831       -0.78616039666091       -0.45372861025723
