8
 energy: -7.336370297253 gnorm: 0.000446905161 xtb: 6.6.0 (conda-forge)
C           -0.75411057153403       -0.09487359809892        0.03237084362973
C            0.75411057153396        0.09487359809824       -0.03237084363076
H           -1.16244715466705       -0.26306396200510       -0.96197300538802
H           -1.23367543041596        0.78616039666206        0.45372861025751
H           -1.00650499992590       -0.95117135667968        0.65430269519813
H            1.00650499992521        0.95117135667946       -0.65430269519847
H            1.16244715466547        0.26306396200484        0.96197300538912
H            1.23367543041831       -0.78616039666091       -0.45372861025723
