60
 energy: -110.718310088698 gnorm: 0.153696993662 xtb: 6.6.0 (conda-forge)
C           -0.75240000000000       -4.48770000000000        2.03660000000000
O           -2.02230000000000       -4.18170000000000        1.47010000000000
C           -2.44480000000000       -2.89260000000000        1.10770000000000
C           -1.62580000000000       -1.76120000000000        1.27710000000000
C           -2.08370000000000       -0.48860000000000        0.90200000000000
C           -3.37700000000000       -0.34840000000000        0.38070000000000
C           -4.20500000000000       -1.47140000000000        0.20020000000000
C           -3.72910000000000       -2.74280000000000        0.56500000000000
O           -4.52640000000000       -3.87640000000000        0.39900000000000
O           -5.49850000000000       -1.36020000000000       -0.33570000000000
C           -6.11040000000000       -0.13390000000000       -0.72350000000000
C           -1.24830000000000        0.71650000000000        1.09750000000000
O           -1.81790000000000        1.79260000000000        1.63210000000000
C           -1.16850000000000        2.93010000000000        1.84970000000000
C           -1.85510000000000        4.00610000000000        2.41870000000000
C           -1.19600000000000        5.21500000000000        2.65940000000000
C            0.15480000000000        5.34750000000000        2.33010000000000
C            0.86480000000000        4.28450000000000        1.75820000000000
C            0.19950000000000        3.05460000000000        1.51120000000000
C            0.82810000000000        1.93930000000000        0.93280000000000
C            0.10430000000000        0.75540000000000        0.70870000000000
O            0.67940000000000       -0.36810000000000        0.08800000000000
C            1.99060000000000       -0.41570000000000       -0.47500000000000
C            2.27310000000000       -1.85120000000000       -0.94170000000000
C            3.71300000000000       -1.97600000000000       -1.49710000000000
C            4.29720000000000       -0.60820000000000       -1.91300000000000
C            3.18790000000000        0.36930000000000       -2.40930000000000
O            2.05470000000000        0.50780000000000       -1.55190000000000
C            2.69430000000000        0.01260000000000       -3.82060000000000
O            3.74320000000000        0.11440000000000       -4.74330000000000
O            4.97000000000000       -0.03920000000000       -0.81720000000000
O            3.72240000000000       -2.84360000000000       -2.60220000000000
O            2.09480000000000       -2.73430000000000        0.13570000000000
O            2.21310000000000        4.50110000000000        1.45790000000000
O           -1.87430000000000        6.29220000000000        3.22580000000000
H           -0.68550000000000       -5.58300000000000        2.20640000000000
H            0.05730000000000       -4.18920000000000        1.33930000000000
H           -0.63190000000000       -3.96650000000000        3.01030000000000
H           -0.64340000000000       -1.86190000000000        1.71920000000000
H           -3.72560000000000        0.63750000000000        0.10470000000000
H           -5.46130000000000       -3.82980000000000        0.01220000000000
H           -6.19140000000000        0.54530000000000        0.15170000000000
H           -7.13020000000000       -0.34330000000000       -1.10680000000000
H           -5.52010000000000        0.34890000000000       -1.53100000000000
H           -2.90290000000000        3.90100000000000        2.67360000000000
H            0.65990000000000        6.28640000000000        2.52010000000000
H            1.86370000000000        1.97860000000000        0.64450000000000
H            2.72090000000000       -0.13830000000000        0.31720000000000
H            1.53370000000000       -2.09070000000000       -1.74270000000000
H            4.38040000000000       -2.39790000000000       -0.70650000000000
H            5.04250000000000       -0.77680000000000       -2.72620000000000
H            3.65170000000000        1.37750000000000       -2.48950000000000
H            1.88570000000000        0.72130000000000       -4.10950000000000
H            2.27090000000000       -1.01470000000000       -3.83600000000000
H            3.36460000000000       -0.15600000000000       -5.62090000000000
H            5.56740000000000        0.66750000000000       -1.17700000000000
H            3.63980000000000       -3.76650000000000       -2.24620000000000
H            2.02940000000000       -3.64630000000000       -0.25070000000000
H            2.82930000000000        3.80950000000000        1.05670000000000
H           -2.85460000000000        6.22980000000000        3.47370000000000
60
 energy: -110.751791919718 gnorm: 0.071644919599 xtb: 6.6.0 (conda-forge)
C           -0.77614305103094       -4.44921924504319        2.02021857600304
O           -2.04892456476922       -4.17487845289774        1.45581729112742
C           -2.44246590833099       -2.89054851393433        1.10402836047115
C           -1.63138947506702       -1.76630134996949        1.26906457613483
C           -2.08420283888067       -0.49400674993427        0.90146071488514
C           -3.37962291006471       -0.35208848537399        0.38781072605179
C           -4.20317935764823       -1.46391465193731        0.20428465691511
C           -3.73430046590980       -2.74226534741223        0.56233599844808
O           -4.50473712707406       -3.87492928330342        0.40599950849061
O           -5.49028505218917       -1.38863556841169       -0.32782662948841
C           -6.07260023821156       -0.15071213956291       -0.70618194384086
C           -1.22629344981019        0.69076187462168        1.07726856238188
O           -1.81937247428864        1.78137731320375        1.61967105786154
C           -1.16076123081807        2.93218413017522        1.84327927008773
C           -1.85215915234193        3.99874815961571        2.41178087678696
C           -1.19434507240412        5.20654472615805        2.65545566900267
C            0.15262228033343        5.34248188867530        2.32927075287396
C            0.86025146906577        4.28408660137126        1.76103435117098
C            0.21060139078429        3.05094927603053        1.50853972285542
C            0.84193656789773        1.92337989254366        0.92380485040081
C            0.12336980697279        0.74395640540556        0.69671191696982
O            0.67094279138440       -0.37635564129814        0.07640007371814
C            1.98291373471764       -0.40427969850410       -0.45417852456273
C            2.26216635103739       -1.84069988332974       -0.92854514150311
C            3.70043466325207       -1.96403386081458       -1.49580890902046
C            4.28100740014706       -0.60106234708393       -1.91568023648390
C            3.18380253758493        0.36733085613057       -2.41726530836172
O            2.06788950342358        0.49936330799688       -1.53966567963619
C            2.68453701868597        0.00553185242199       -3.82389919607438
O            3.74294036015397        0.11265361156599       -4.74371285832176
O            4.97026734755568       -0.04542501803534       -0.81708524037406
O            3.72571200274197       -2.83973742843265       -2.60184873340754
O            2.08142596324595       -2.73539992622739        0.14273358146307
O            2.18660295498648        4.52094738673068        1.47325194149025
O           -1.84050761508491        6.28494940320407        3.21434382263940
H           -0.72820926304554       -5.53469754566533        2.18312805779705
H            0.04489538004455       -4.16569247709604        1.34665341764837
H           -0.63940039979576       -3.95459016400424        2.99255497698529
H           -0.64832013868751       -1.86811281658989        1.70075378697563
H           -3.72601527588892        0.63132155684177        0.10927319168929
H           -5.40522371070105       -3.75605570122563        0.02646975813105
H           -6.17169648495152        0.53480711154039        0.14772673574299
H           -7.07922001017737       -0.37402084939679       -1.08246986962780
H           -5.50905351665573        0.34059611601737       -1.51245429004228
H           -2.89708559852194        3.88904308696139        2.66653371322236
H            0.65643840734401        6.27821298853767        2.51824292188125
H            1.87420335435385        1.97266300184748        0.62742902998480
H            2.72019473704412       -0.13973326906678        0.32779898714084
H            1.54225336261409       -2.07028951595761       -1.73654471091056
H            4.35845457525334       -2.36208683855340       -0.69913990986452
H            4.99466045014530       -0.77886660927822       -2.74030490318706
H            3.64627325884736        1.36958741132939       -2.48643417726203
H            1.87828547766480        0.71217585184251       -4.08824895744457
H            2.27158212746983       -1.01532132399786       -3.82408189871255
H            3.38995602845384       -0.15053849328999       -5.61190593851496
H            5.55247280568539        0.65754186879066       -1.15782164015560
H            3.64157279695536       -3.74995410193075       -2.26606695888249
H            2.02520691682349       -3.63310360397440       -0.23123432642054
H            2.73243691297257        3.80386653133820        1.08022490873294
H           -2.79279635329338        6.17269469063561        3.43734963793845
60
 energy: -110.765857441404 gnorm: 0.019596146969 xtb: 6.6.0 (conda-forge)
C           -0.80209822746016       -4.41618455570697        2.00406474235843
O           -2.07074034689860       -4.16100670365438        1.44123916098812
C           -2.43354218229393       -2.88307320693824        1.10130974019327
C           -1.62517336779236       -1.76793266574742        1.25488805880024
C           -2.07552738825404       -0.49473528186615        0.89463279404536
C           -3.37509499459919       -0.35067678184319        0.39433847921478
C           -4.19299383187516       -1.45467433081602        0.21290539978578
C           -3.73118853679494       -2.73675052455940        0.56378211747413
O           -4.48228436591058       -3.86288081349693        0.41163262738039
O           -5.47444254777323       -1.41228118952544       -0.31413335171272
C           -6.04003216156834       -0.17426825498956       -0.68881929870626
C           -1.20246692263599        0.66902310736315        1.05551695528442
O           -1.82117395589558        1.77179208695206        1.60181499757052
C           -1.14942786956346        2.92998163517585        1.83309447289256
C           -1.84808516495661        3.98587068721565        2.40116718167757
C           -1.19358112205574        5.19286277842598        2.64974388694314
C            0.15018969735771        5.33038387115161        2.32629916742842
C            0.85819822918494        4.27779789892197        1.76067128763549
C            0.22271709021128        3.04304911381081        1.50250234246108
C            0.85845012020475        1.90996223164122        0.91157316624871
C            0.14457513987448        0.73729551438960        0.68445100851118
O            0.66668187024974       -0.37740539124796        0.05950260288454
C            1.97409567168388       -0.39790855994380       -0.43930200980594
C            2.24895854021729       -1.83482505722768       -0.92138628575630
C            3.68849485737975       -1.95236827136015       -1.48763691041805
C            4.26349272856408       -0.59672598086105       -1.92263918605516
C            3.17593222138634        0.37161020533174       -2.41083452138725
O            2.07129300734891        0.50276917804833       -1.52153627283861
C            2.67198793586001        0.00000679475541       -3.81387770392983
O            3.73958583537993        0.11713415949103       -4.72841954006241
O            4.96452849855551       -0.05483031655728       -0.82110191348203
O            3.72286205135469       -2.82955177096378       -2.59629615523212
O            2.06630062816438       -2.73117763443768        0.14996706462927
O            2.16511887461923        4.52913402371490        1.48502023498509
O           -1.81257181671595        6.26975139036564        3.20223761978232
H           -0.76732092883374       -5.49696247431261        2.15813656721402
H            0.01798237443068       -4.12602716382901        1.34213247836437
H           -0.66642576557166       -3.92554582863956        2.97142544281897
H           -0.63945897742361       -1.87102819075437        1.67488921270910
H           -3.72258801246404        0.63187831575329        0.11936858378134
H           -5.35154310477433       -3.66359240232297        0.03752367702937
H           -6.13595082634741        0.51120788692478        0.15692938651977
H           -7.03908753237202       -0.40880496582043       -1.06100293897734
H           -5.47863414047125        0.31582019881196       -1.48851640418698
H           -2.89159333899951        3.86881833372515        2.65272121403170
H            0.65300241253157        6.26376663281380        2.51510253050609
H            1.88753829703865        1.97072637752450        0.60345868106103
H            2.70892855318509       -0.14240589446213        0.34326869162077
H            1.53354026393733       -2.04776215048247       -1.72800747965920
H            4.34045283441080       -2.32913548053528       -0.68618895673939
H            4.95293132993697       -0.78206112003921       -2.75681431316140
H            3.63260417766329        1.37067552204079       -2.48329059240752
H            1.86559843079172        0.69835072176709       -4.07014653197518
H            2.27578271596217       -1.02006384048247       -3.80962363712663
H            3.41521102343587       -0.14524817969277       -5.59373140739639
H            5.53465910854992        0.64963433588458       -1.14199432187539
H            3.64265134467999       -3.73360411784133       -2.28174740065861
H            2.01487387261409       -3.62160046865909       -0.20789910260632
H            2.63467688608490        3.77905388602289        1.09746640516387
H           -2.74086919254853        6.10494268159296        3.40046825616181
60
 energy: -110.769601245528 gnorm: 0.017795950450 xtb: 6.6.0 (conda-forge)
C           -0.81377628134179       -4.39452670109853        1.99419374353072
O           -2.07743515637937       -4.15274365112393        1.42681524583251
C           -2.41990299921573       -2.87620984831458        1.09269703079139
C           -1.60534173790292       -1.76720989344558        1.23507928499940
C           -2.06036657440557       -0.49290943762095        0.88407200159701
C           -3.36434305688235       -0.34391207039787        0.40004138469980
C           -4.17715827062630       -1.44906351815418        0.22284114002253
C           -3.71732984001538       -2.72817175915343        0.56566310364276
O           -4.47904326122179       -3.84111602274060        0.40946879055272
O           -5.45806579549437       -1.42637629348229       -0.29661467001675
C           -6.01686605678942       -0.19167789020709       -0.67294184071052
C           -1.19058705707989        0.66313312302588        1.04091208790190
O           -1.82050351816167        1.76841300248754        1.58282519577790
C           -1.14032321194365        2.92319337364847        1.81774020603943
C           -1.84269107937949        3.97283410886859        2.38658567348815
C           -1.19028703908817        5.17850746169947        2.64150878777303
C            0.15256415263926        5.31771629153406        2.32182216549775
C            0.86084940122290        4.26820425353417        1.75606552681175
C            0.23035574321151        3.03443165897488        1.49159406000580
C            0.87018388931384        1.90473677123191        0.89609147617851
C            0.15421900551003        0.73641968133766        0.67383192981057
O            0.66325477551167       -0.37954423395364        0.05007430111088
C            1.96931480187481       -0.39650547388100       -0.42942474533608
C            2.23739187947017       -1.83116167761177       -0.91568451248713
C            3.67394485091130       -1.94550308593872       -1.48217726131905
C            4.24666355185093       -0.59106040031144       -1.91815212437414
C            3.16313282010775        0.37963566760615       -2.39855391538953
O            2.06749786448350        0.51411506695598       -1.50232430275545
C            2.65854970460659       -0.00157118793763       -3.79895425607215
O            3.73547627942409        0.13223005254936       -4.70247254962844
O            4.95939789343626       -0.06219594711143       -0.81710456667463
O            3.71609554740405       -2.81885533305305       -2.59367029055384
O            2.04912714718284       -2.71963742073658        0.16091574041600
O            2.16580995807060        4.50907829878104        1.48203360639895
O           -1.81180014734230        6.24758678834482        3.19573860784515
H           -0.77510425615963       -5.47366397432045        2.14373385168294
H            0.00192181118676       -4.08615769510211        1.33457005731253
H           -0.69522307909569       -3.89636587670506        2.96040047206085
H           -0.61276767850364       -1.87152591974260        1.63850278322435
H           -3.71454948720294        0.64020272918738        0.13465786317581
H           -5.33837784402779       -3.58215602268748        0.03890414052275
H           -6.10318570200666        0.49238840977082        0.17518632402687
H           -7.01423768356137       -0.42864997408009       -1.04387401218993
H           -5.44513333524758        0.29018975612957       -1.47066956353433
H           -2.88658964177063        3.84788802959215        2.63266595071845
H            0.65484533865650        6.25016123872979        2.51333597713403
H            1.89658212454650        1.97045057904355        0.57588354333446
H            2.69784758313901       -0.14724555271079        0.36199235963608
H            1.51759342957550       -2.03365321282319       -1.71982424167419
H            4.32334235715100       -2.31014987901916       -0.67475013422030
H            4.92038008443824       -0.77853927102787       -2.76425507850825
H            3.61734692667441        1.37834808749663       -2.47832242768975
H            1.84191216294872        0.68284592843104       -4.05800698488117
H            2.28276710907734       -1.02972815022720       -3.79201089592486
H            3.43559663542237       -0.14177070246711       -5.57454171034193
H            5.51841133432514        0.65628435121747       -1.12845378184015
H            3.63936843421313       -3.72743623766473       -2.29027395639999
H            1.99922769463018       -3.61515215049628       -0.18585491192140
H            2.58708473863106        3.72968977804785        1.09142368437548
H           -2.73706724000185        6.04366197712209        3.37934463651477
60
 energy: -110.771169236681 gnorm: 0.013296687478 xtb: 6.6.0 (conda-forge)
C           -0.81237301550571       -4.37842520045227        1.98684480548313
O           -2.07136249179607       -4.14996855754279        1.40795290068163
C           -2.40489309858481       -2.87321379126420        1.07719466275706
C           -1.58376779855987       -1.76801307253512        1.20946711391180
C           -2.04733667332823       -0.49239279391549        0.87222109388356
C           -3.35613171975750       -0.33549821281968        0.40588851362894
C           -4.16469878570990       -1.44312489619115        0.23102056042297
C           -3.70304773180276       -2.71964450883366        0.56455370535226
O           -4.48453151271897       -3.81903134658711        0.40500433459032
O           -5.44842084261929       -1.43218350276681       -0.27698026398007
C           -6.00108726569383       -0.19920728762855       -0.65764496238069
C           -1.18602983279326        0.66203671293090        1.02923984749589
O           -1.82235781132181        1.76738911791203        1.56063088367109
C           -1.13468351592357        2.91469503373324        1.79806007651468
C           -1.83840416333767        3.96076290087009        2.36845149164597
C           -1.18663154107625        5.16389421905037        2.63150185116665
C            0.15704937102594        5.30457198678330        2.31651173499422
C            0.86484461730593        4.25688393615395        1.74859409909047
C            0.23474390129552        3.02521251392651        1.47680060238637
C            0.87812361153196        1.90072446405350        0.87817185751068
C            0.15731543282779        0.73561725205193        0.66490927128223
O            0.65718590328027       -0.38463840260631        0.04585789215069
C            1.96352830566142       -0.39865573716126       -0.42042959248311
C            2.22700420747035       -1.82889569373159       -0.91202963606949
C            3.66074132314462       -1.94228196958541       -1.47700706909488
C            4.23323835679093       -0.58611450550693       -1.90994853591388
C            3.15071820505380        0.38827591010764       -2.38274208917250
O            2.06497955469740        0.52795124595378       -1.47928772250296
C            2.64716406241528       -0.00263503176158       -3.78062489267481
O            3.72696838394369        0.15472263427590       -4.67685534404094
O            4.95402218236823       -0.06767301058286       -0.81078000139291
O            3.70848252785416       -2.81099637244787       -2.59021974006864
O            2.03275389898988       -2.70777807723752        0.17048755276019
O            2.17442881818299        4.48084453703505        1.47487142287880
O           -1.82004921445614        6.22368761008007        3.19137732397918
H           -0.75804726310929       -5.45575450494643        2.13584749311212
H            0.00220593808892       -4.05063155537885        1.33323302219638
H           -0.71615831936188       -3.87239890934779        2.95323243474830
H           -0.58288878744466       -1.87158897070615        1.59267660479047
H           -3.70716201853148        0.65189963069782        0.15458693356178
H           -5.33506771401520       -3.52301596887294        0.04200500196267
H           -6.07736146864192        0.48576444249409        0.19195204371754
H           -6.99885876703698       -0.43057720609199       -1.02823562178120
H           -5.41839512106232        0.27310130492949       -1.45469130749393
H           -2.88310615391598        3.82888316206885        2.60771954900869
H            0.65984861896777        6.23564545345817        2.51401892324578
H            1.90104083770885        1.96715071801048        0.54553748304615
H            2.68526604525707       -0.15733322867010        0.38143980182627
H            1.50036331615654       -2.02567748737148       -1.71242013787177
H            4.30834724375792       -2.30188851702974       -0.66535156920189
H            4.89801975763991       -0.77210086267080       -2.76412140829811
H            3.60404535621977        1.38703639902607       -2.47171467595065
H            1.81469061712924        0.66282671754899       -4.04282498515409
H            2.29404826169870       -1.04021935504765       -3.77369288494024
H            3.44719863808856       -0.13704396336004       -5.55230039787482
H            5.49662083612663        0.66989518496123       -1.11485868355598
H            3.63308142962224       -3.72401767876459       -2.29368343396854
H            1.98291861320602       -3.60956033403581       -0.16613769525117
H            2.56495175534840        3.68791994024237        1.08198933021651
H           -2.74308730075131        5.99498748509658        3.36503043144584
60
 energy: -110.771819984059 gnorm: 0.007607820372 xtb: 6.6.0 (conda-forge)
C           -0.79957423846957       -4.36703917981760        1.98044235940344
O           -2.05418032706770       -4.15256850259452        1.38499458895165
C           -2.39236748259273       -2.87584496941233        1.05794331801250
C           -1.56919975622851       -1.77095860027709        1.18454550434375
C           -2.04096679755808       -0.49421764380241        0.86206521332235
C           -3.35447749029960       -0.33044670377107        0.41198218360769
C           -4.16064197567981       -1.43919464528712        0.23762184003069
C           -3.69401812774028       -2.71643887947970        0.56059746847908
O           -4.49162431645147       -3.80651964547260        0.40045327783659
O           -5.44875781243877       -1.42934349927584       -0.25766174345216
C           -5.99408451038458       -0.19527278819275       -0.64406343496707
C           -1.18724160177209        0.66267812292751        1.01999377823338
O           -1.82691409684164        1.76820920465662        1.53833163416173
C           -1.13381932305214        2.90858969392982        1.77862194079187
C           -1.83671782039744        3.95403025278661        2.35054169005581
C           -1.18373817351393        5.15390859315493        2.62195288799673
C            0.16162260836397        5.29521420252556        2.31247722157631
C            0.86773696370160        4.24827029245426        1.74168564183490
C            0.23544975744820        3.01894309888609        1.46233903064477
C            0.88074527301747        1.89785588516915        0.86234951179392
C            0.15580010303546        0.73443230023532        0.65744649011034
O            0.65156428260983       -0.39047701781278        0.04531754830781
C            1.95953531409327       -0.40263877032600       -0.41271992372581
C            2.22074372254979       -1.82881655225713       -0.90970854000043
C            3.65325413214718       -1.94211440252254       -1.47245166672606
C            4.22733026442912       -0.58332654308991       -1.89997144018389
C            3.14385355180486        0.39241493386800       -2.36924089975278
O            2.06808994445122        0.53850711192775       -1.45823777671294
C            2.63856738402344       -0.00419946730977       -3.76445851852539
O            3.71359654121795        0.17771363545564       -4.66070957984014
O            4.95014061242464       -0.07094258070351       -0.80153854607855
O            3.70422146053579       -2.80731180609339       -2.58661717590210
O            2.02223611281342       -2.70252451718875        0.17586678617264
O            2.18236843141540        4.45807814261310        1.46939308295695
O           -1.82720176958902        6.20655491485810        3.18786803747189
H           -0.72935925180855       -5.44298832309169        2.13123764322790
H            0.01848981145134       -4.02619051691128        1.33713367560419
H           -0.72539191158223       -3.85690723475175        2.94783416725995
H           -0.56180537753730       -1.87206308833487        1.55015287329118
H           -3.70491757808592        0.66056203749681        0.17539511039078
H           -5.33701847308662       -3.49238138630716        0.04751305089769
H           -6.06361934830710        0.49294343964817        0.20411247538723
H           -6.99327984488809       -0.41884478936431       -1.01460273542427
H           -5.40427581261184        0.26820487484764       -1.44185400872031
H           -2.88231075063912        3.81866207138259        2.58346868347054
H            0.66580909023398        6.22416954577914        2.51733977701962
H            1.90036688727045        1.96214240602747        0.52095627869880
H            2.67512194180291       -0.16992457746695        0.39829980708827
H            1.49046254172714       -2.02434933725966       -1.70803592438685
H            4.29908276447929       -2.30226497824169       -0.65898414141398
H            4.88983394382451       -0.76636768145871       -2.75667613282392
H            3.59724424255169        1.39085166450886       -2.46610754090036
H            1.79085584622587        0.64432194758532       -4.02430390144886
H            2.30580076402731       -1.04912239655108       -3.75913487275859
H            3.44442490440736       -0.12956695148235       -5.53410803357676
H            5.47514436930322        0.68338566243910       -1.09957364044409
H            3.62659889895604       -3.72183708332854       -2.29298914446051
H            1.97134740848118       -3.60716561433374       -0.15501053067668
H            2.55775703990317        3.66164704977686        1.07476546249962
H           -2.74769294610385        5.96807958862996        3.35601981196992
60
 energy: -110.772192996547 gnorm: 0.005879597996 xtb: 6.6.0 (conda-forge)
C           -0.78144691497872       -4.35750334420801        1.97153653942564
O           -2.03072528599619       -4.15756550860847        1.35625280906640
C           -2.38289393792668       -2.88111931794098        1.03703906942706
C           -1.56126484210770       -1.77421962845500        1.16151181194027
C           -2.03958074387538       -0.49662450602539        0.85390650753626
C           -3.35802681921910       -0.32896628137591        0.41940511644098
C           -4.16281423600411       -1.43777046779930        0.24475887761563
C           -3.68986089765573       -2.71788809502181        0.55534638438868
O           -4.49746761677213       -3.80266664492571        0.39521632055119
O           -5.45637169966492       -1.42244663529917       -0.23632784327197
C           -5.99288022612975       -0.18564623292070       -0.62945634542432
C           -1.19127757717376        0.66390420046993        1.01137258381052
O           -1.83327130015953        1.77110400111955        1.51512314271817
C           -1.13631581838546        2.90623698084389        1.75991313793077
C           -1.83725947569432        3.95289589021979        2.33283989357415
C           -1.18171455567251        5.14895731037175        2.61305049324399
C            0.16565697302344        5.28950266375994        2.30998281809137