21
 energy: -39.597840383619 gnorm: 0.166642399954 xtb: 6.6.0 (conda-forge)
C            3.71070000000000       -0.10780000000000       -0.14120000000000
C            2.37040000000000        0.16150000000000        0.45300000000000
O            2.28870000000000        0.54910000000000        1.65000000000000
O            1.22060000000000       -0.12630000000000       -0.29360000000000
C           -0.08250000000000        0.28740000000000        0.02870000000000
C           -0.30870000000000        1.51260000000000        0.68650000000000
C           -1.60550000000000        1.92580000000000        0.99220000000000
C           -2.69320000000000        1.13100000000000        0.63810000000000
C           -2.48970000000000       -0.07650000000000       -0.03150000000000
C           -1.18940000000000       -0.51310000000000       -0.35050000000000
C           -1.01880000000000       -1.80500000000000       -1.06530000000000
O            0.12830000000000       -2.24390000000000       -1.34850000000000
O           -2.13550000000000       -2.55240000000000       -1.43240000000000
H            4.03100000000000       -1.13760000000000        0.12050000000000
H            4.45480000000000        0.61860000000000        0.24840000000000
H            3.66030000000000       -0.01120000000000       -1.24600000000000
H            0.51470000000000        2.16690000000000        0.93830000000000
H           -1.76770000000000        2.86950000000000        1.49710000000000
H           -3.69840000000000        1.45500000000000        0.87530000000000
H           -3.35560000000000       -0.66860000000000       -0.29980000000000
H           -2.03440000000000       -3.43490000000000       -1.91950000000000
21
 energy: -39.620171521312 gnorm: 0.058405700554 xtb: 6.6.0 (conda-forge)
C            3.66222793636867       -0.10682635645954       -0.15649131188266
C            2.33314726778984        0.15511798248666        0.48090434422262
O            2.24176532889629        0.56012671327733        1.62418555381967
O            1.22751411814541       -0.11243523892815       -0.29141662090226
C           -0.06733633657977        0.27708243353556        0.03809596003850
C           -0.30317796375756        1.49666665712384        0.67767213111038
C           -1.59343146843021        1.90859446950451        0.97681797268298
C           -2.67643724591403        1.11670167875445        0.62851390284653
C           -2.46507277155775       -0.08013627914804       -0.03702620185885
C           -1.17037386664053       -0.52254179335680       -0.34801968195673
C           -0.98470651618941       -1.80678247441875       -1.06276282921470
O            0.10827607752092       -2.25926083278353       -1.35350571598700
O           -2.12031052045790       -2.48725767940865       -1.39653879034696
H            3.99664605970850       -1.11522038947540        0.10705076996775
H            4.39829963891151        0.59794791040157        0.24440877194329
H            3.63259043663611       -0.02528333978792       -1.24621245131302
H            0.52324493537812        2.13791749703543        0.94403702033226
H           -1.75372009803361        2.84972407942634        1.48509289615365
H           -3.68125748140640        1.43774070592872        0.86769911006009
H           -3.32075171991966       -0.67967831671219       -0.31213505001448
H           -1.98703581046853       -3.34209742699544       -1.87056977970103
21
 energy: -39.626269219823 gnorm: 0.022288842993 xtb: 6.6.0 (conda-forge)
C            3.61085967750447       -0.11545484490771       -0.16969176596560
C            2.29489634368586        0.17781762764142        0.49652589005190
O            2.19642686439837        0.54877731889793        1.62632499349691
O            1.23417741555820       -0.08755409039648       -0.30548191890197
C           -0.05193134489922        0.27936402362774        0.03779469877791
C           -0.29333674741199        1.48895152719348        0.67775655630741
C           -1.58141867409879        1.89539098020967        0.97225982139142
C           -2.65980559022153        1.10306258867698        0.61935372636859
C           -2.43752648048822       -0.08920985967795       -0.04003376435150
C           -1.14599904257447       -0.52547928427507       -0.34439590018986
C           -0.94176563829729       -1.80722064805359       -1.05766310991701
O            0.11955850408126       -2.27718764639057       -1.35567075364233
O           -2.10113345196542       -2.42738412297003       -1.35820009228944
H            3.93023283789832       -1.12281359093545        0.09018655571083
H            4.34911081986172        0.57438143793540        0.23461977429387
H            3.56462147177804       -0.03337065455053       -1.24825397949936
H            0.53632553264956        2.12123623223762        0.95089974530850
H           -1.74135340634907        2.83895907099683        1.47308630466391
H           -3.66592557568314        1.41931385220596        0.85271570716632
H           -3.27849022568107       -0.70120034159802       -0.32947559398194
H           -1.93742328974558       -3.26027957586763       -1.82285689479853
21
 energy: -39.627259371049 gnorm: 0.009097064848 xtb: 6.6.0 (conda-forge)
C            3.58542904822609       -0.12762004116836       -0.17399885060483
C            2.27749236622876        0.15707716450647        0.51186181994626
O            2.17336394885220        0.55486676566756        1.63839050825323
O            1.23255201351496       -0.07476619117018       -0.31513164193614
C           -0.04620206384547        0.29716020526620        0.03008485351684
C           -0.28835495671937        1.50038481832022        0.67967129768923
C           -1.57904271698762        1.89706058415292        0.97374264827219
C           -2.65251894493292        1.09892507710391        0.61569844272576
C           -2.42299805274270       -0.09120768538747       -0.04408366340510
C           -1.12994297170148       -0.51479310178722       -0.34723025720229
C           -0.91803585796452       -1.79961141693431       -1.05361844243092
O            0.14136456113126       -2.28224902713026       -1.35295695449990
O           -2.08256774117904       -2.40897316072500       -1.34574976120152
H            3.89521839174888       -1.13926773624274        0.07862609635212
H            4.33176963505111        0.56147869951765        0.21493010055372
H            3.50296117943132       -0.04500187545523       -1.25164271684728
H            0.54163061052813        2.12920829214747        0.95944012199686
H           -1.74243470118296        2.83684927997792        1.47867910773916
H           -3.66082770592795        1.40696560216232        0.84630094296119
H           -3.25359974783374       -0.71564959753356       -0.33576461675133
H           -1.90515629369492       -3.24073665528834       -1.80744903512720
21
 energy: -39.627713746076 gnorm: 0.006398483477 xtb: 6.6.0 (conda-forge)
C            3.56776667710508       -0.14780144975713       -0.17923838584607
C            2.27005455062456        0.17030849739961        0.50940850486787
O            2.16593343631339        0.53703079559698        1.64896253239088
O            1.23137333796617       -0.04375402393606       -0.32516919424547
C           -0.04521635980904        0.31811141449239        0.03198781309741
C           -0.29174920572022        1.51905629595605        0.68450707853850
C           -1.58654818094680        1.90324017100653        0.97698569878157
C           -2.65312397753297        1.09679282454815        0.61394511867363
C           -2.41568723419409       -0.09194996529200       -0.04593104986538
C           -1.11816219395548       -0.50288994568557       -0.34554279399888
C           -0.89676079785818       -1.78919489407795       -1.04779228958190
O            0.16603604707585       -2.27541650875735       -1.33770123819806
O           -2.05520081803659       -2.40553544362120       -1.34246592547654
H            3.85063260079432       -1.17129167846646        0.06079900784661
H            4.33782919297438        0.52252184523819        0.19767009516781
H            3.45780097694478       -0.05758630811174       -1.25555516616133
H            0.53584585887312        2.15010444291003        0.96513213585563
H           -1.75654467454400        2.83899804306494        1.48641536354775
H           -3.66420721344071        1.39603421371922        0.84156529510042
H           -3.23729474675581       -0.72678221354247       -0.33911909183559
H           -1.86267727587776       -3.23989611268419       -1.79906350865879
21
 energy: -39.627999136033 gnorm: 0.005738462717 xtb: 6.6.0 (conda-forge)
C            3.55758372883975       -0.16977769983041       -0.18531644596890
C            2.26811669016059        0.16723339538609        0.50876099289340
O            2.16626366955143        0.52542170066810        1.65088473042073
O            1.22904621485040       -0.01519290935524       -0.33173165029571
C           -0.04800592216373        0.34026413716288        0.03093199934859
C           -0.29962649084973        1.53827640110728        0.68783766507734
C           -1.59820580514460        1.90974388049961        0.98194709181675
C           -2.65853212369488        1.09599390435885        0.61550510925728
C           -2.41489479855130       -0.09147676152197       -0.04472479326668
C           -1.11279284747162       -0.49073653131074       -0.34459039353236
C           -0.87871892213027       -1.77981986049864       -1.03882702950210
O            0.19038896806698       -2.25793381622128       -1.31875305009168
O           -2.02686205407341       -2.40827801813444       -1.34648491760716
H            3.82241781668029       -1.19952030863183        0.04881287371234
H            4.34666729662662        0.48494946474271        0.17895749373179
H            3.43185062817561       -0.07642561029046       -1.26012288902757
H            0.52513171906159        2.17313813481542        0.96788820473599
H           -1.77589430292203        2.84280004088149        1.49400284223519
H           -3.67194607184592        1.38827028106342        0.84164499287894
H           -3.23027784670522       -0.73361028256739       -0.33733239225058
H           -1.82160954646053       -3.24321954232346       -1.79949043456550
21
 energy: -39.628267223899 gnorm: 0.004414388062 xtb: 6.6.0 (conda-forge)
C            3.54708894215721       -0.19901643971894       -0.19531179114162
C            2.26807727132085        0.16548128133622        0.50416893516837
O            2.16912341771234        0.51331897512940        1.64855561648283
O            1.22696768597928        0.02403936955731       -0.34227193925487
C           -0.05237720237104        0.36633064140024        0.02972710850897
C           -0.31228784446374        1.56037038831243        0.69096493095207
C           -1.61504277886580        1.91694614389623        0.98750745358686
C           -2.66757059185606        1.09409661076708        0.61911645627482
C           -2.41562406040941       -0.09142963806140       -0.04167853131800
C           -1.10851397407413       -0.47673503560122       -0.34328328494145
C           -0.85535472661024       -1.76385866602265       -1.03409961076808
O            0.22387938220642       -2.23549225724692       -1.28818344043128
O           -1.99222659290927       -2.40871981641423       -1.35485697103276
H            3.78958056827981       -1.23385951558067        0.03914081571013
H            4.35523719072359        0.43582313330070        0.15916222098381
H            3.41712453258989       -0.10527749959364       -1.26847417206975
H            0.50856026597059        2.20095244038293        0.97008664644180
H           -1.80351255117224        2.84626658784956        1.50343575331157
H           -3.68357728155604        1.37770425711582        0.84631661076262
H           -3.22477981264859       -0.74134127248158       -0.33270995832806
H           -1.77467184000338       -3.24549968832669       -1.79751284889783
21
 energy: -39.628435614474 gnorm: 0.004499594014 xtb: 6.6.0 (conda-forge)
C            3.53425036925106       -0.23154240374615       -0.20732366714321
C            2.26639371780072        0.16715723775910        0.49473070017435
O            2.17033406963607        0.50019357161354        1.64296132785711
O            1.22500328029430        0.07033990532876       -0.35947587223856
C           -0.05642512047445        0.39610912459324        0.02361232126129
C           -0.32666502455206        1.58369763550455        0.69168274465533
C           -1.63306168580546        1.92380207487529        0.99331320925678
C           -2.67711299872633        1.09065429266924        0.62436182169034
C           -2.41462871434186       -0.09203463147350       -0.03751874432312
C           -1.10362290249820       -0.46217988969258       -0.34173151457241
C           -0.82752723660373       -1.75286949633036       -1.01590973392736
O            0.26087328845118       -2.21111272697038       -1.25353886769164
O           -1.95391636592825       -2.40471832573556       -1.36379627952785
H            3.74786164033111       -1.27229493983314        0.03147785200473
H            4.36089182363583        0.37997104177409        0.14432634721906
H            3.40759286319383       -0.13836714002808       -1.27996182879862
H            0.48936036469928        2.23071909142050        0.97121065065258
H           -1.83358339227669        2.84898679598283        1.51287140908781
H           -3.69576438528272        1.36430678735383        0.85401048833166
H           -3.21745770673748       -0.75117856422410       -0.32544978505872
H           -1.72269588406607       -3.23953944084113       -1.80005257890939
21
 energy: -39.628516846872 gnorm: 0.003820360261 xtb: 6.6.0 (conda-forge)
C            3.52332695219792       -0.25433194334442       -0.21530225012474
C            2.26299201482418        0.16781879417117        0.48602875255716
O            2.16907293505844        0.49248763343536        1.63643682530231
O            1.22326877703230        0.10293044240375       -0.37351141439176
C           -0.05820668789373        0.41714840500543        0.01842085900942
C           -0.33619927261572        1.59976728886811        0.69104335424629
C           -1.64452196396277        1.92786766747368        0.99808092967274
C           -2.68265824788396        1.08722299726624        0.62922970478409
C           -2.41168206849025       -0.09258229441929       -0.03458958511095
C           -1.09920303343259       -0.45065870926072       -0.34296435326920
C           -0.80801248417020       -1.73790311931410       -1.01550678453296
O            0.28583502416426       -2.19854294466686       -1.22366489810317
O           -1.92654364226189       -2.39821448701601       -1.37165685538605
H            3.71393783452271       -1.29905878693926        0.02803212974230
H            4.36171301003905        0.34018137138881        0.13805787335708
H            3.40092603631522       -0.16215145984321       -1.28874607230454
H            0.47567108122005        2.25230283065227        0.97039217445850
H           -1.85292159558717        2.84903752919806        1.52162390665285
H           -3.70294718467604        1.35255227582214        0.86200131073987
H           -3.21004519131455       -0.75880702626124       -0.31982165874476
H           -1.68370229308517       -3.23696646461995       -1.79378394855430
21
 energy: -39.628551544033 gnorm: 0.002077183431 xtb: 6.6.0 (conda-forge)
C            3.51703123193191       -0.26526090660519       -0.21776721455616
C            2.25956608113251        0.16942413349320        0.47918593698838
O            2.16569871573085        0.49023641668089        1.63082058174647
O            1.22254730769402        0.11897440824321       -0.38256028183536
C           -0.05813218687853        0.42843854487335        0.01309952214130
C           -0.34016690629541        1.60835059759168        0.68781150851403
C           -1.64898013415351        1.92968910543869        0.99974197221385
C           -2.68419144967043        1.08449351507376        0.63290043456018
C           -2.40856710470230       -0.09361367333030       -0.03226040922001
C           -1.09605880166074       -0.44499979703324       -0.34418664872538
C           -0.79883377342015       -1.73346908756705       -1.01090714898796
O            0.29593924247983       -2.19494922354238       -1.20833191424959
O           -1.91387643302570       -2.39304327629021       -1.37703808143451
H            3.69423443281244       -1.31159990053601        0.02728604232513
H            4.35974222401928        0.31952306738471        0.14040339459277
H            3.40142920665263       -0.17248811908960       -1.29207420261026
H            0.46888904500826        2.26473005875752        0.96642801609213
H           -1.86041246557663        2.84810645959303        1.52638204722750
H           -3.70496217932923        1.34419478451178        0.86925290378554
H           -3.20486220055076       -0.76384212724738       -0.31467495405136
H           -1.66593385219824       -3.23279498040050       -1.79371150451648
21
 energy: -39.628576731625 gnorm: 0.001618162185 xtb: 6.6.0 (conda-forge)
C            3.51156862424533       -0.27513849262738       -0.21807040659534
C            2.25535806379588        0.17164142517821        0.47140114081110
O            2.15994064789028        0.48917777964132        1.62440744768103
O            1.22226617329370        0.13527616392677       -0.39397761711532
C           -0.05776940739902        0.44013403255406        0.00560262281546
C           -0.34342413525512        1.61768709288065        0.68184434354712
C           -1.65252280802382        1.93127196540821        1.00096355798906
C           -2.68485156064328        1.08066871051976        0.63845033509243
C           -2.40511833403473       -0.09555143005181       -0.02874757671131
C           -1.09263762140334       -0.43945138659903       -0.34619107222095
C           -0.79112676922930       -1.73013723495729       -1.00642908252577
O            0.30452518377515       -2.19580341715414       -1.18939603253888
O           -1.90322753902209       -2.38647278391153       -1.38577542509087
H            3.67325156405139       -1.32419027468985        0.02519544126962
H            4.35884083186782        0.29799642955703        0.14845632181329
H            3.40562661302930       -0.17854134654980       -1.29341219452643
H            0.46252004465723        2.27914378751595        0.95752409529463
H           -1.86603645269711        2.84731135064736        1.53029791976128
H           -3.70579038866251        1.33360144070113        0.88034204300258
H           -3.19940846577376       -0.77028674178752       -0.30655313190323
H           -1.65188426446189       -3.22823707020209       -1.79613272984926
21
 energy: -39.628603682663 gnorm: 0.002709284775 xtb: 6.6.0 (conda-forge)
C            3.50683325458028       -0.28399830915006       -0.21517516413074
C            2.24930187631254        0.17410558998998        0.46269779773625
O            2.14928568648921        0.49152398416573        1.61572249631859
O            1.22279033657478        0.15117934355000       -0.40886373152448
C           -0.05710537646013        0.45176601607101       -0.00531775475779
C           -0.34564509758113        1.62863430806278        0.66964707694729
C           -1.65432987073653        1.93311555547807        1.00009472380589
C           -2.68370482970985        1.07492086291856        0.64769000852545
C           -2.40086738235925       -0.09998276912949       -0.02098034395685
C           -1.08886058986384       -0.43530736234642       -0.34753971165994
C           -0.78530534895948       -1.72878085557597       -1.00154120928433
O            0.30999883053183       -2.20278991996639       -1.16389845667900
O           -1.89476120877152       -2.37643089345490       -1.40141909704841
H            3.64910674628392       -1.33726283249216        0.02028287080561
H            4.35739437135228        0.27350461971590        0.16771141425004
H            3.41686141401496       -0.17671065451131       -1.29158462173741
H            0.45694252232871        2.29722261084542        0.93791153417266
H           -1.86836670830961        2.84737298258959        1.53178959728559
H           -3.70419099866060        1.31918510669150        0.89905509349018
H           -3.19308983762455       -0.78010500458171       -0.29145177894261
H           -1.64218778943191       -3.22106237887015       -1.80503074361577
21
 energy: -39.628627875588 gnorm: 0.002727398346 xtb: 6.6.0 (conda-forge)
C            3.50574236165548       -0.28647616930210       -0.21225185482348
C            2.24605789606687        0.17539906447223        0.45958460260778
O            2.14206931372364        0.49262275501041        1.61247472972759
O            1.22341764953302        0.15715105499617       -0.41676829341785
C           -0.05729848496799        0.45583723418837       -0.01157585686161
C           -0.34617787525645        1.63420605789909        0.66040709344981
C           -1.65412066235551        1.93459926450658        0.99784544761868
C           -2.68219409981789        1.07158108446267        0.65408060078576
C           -2.39920142010691       -0.10361044441046       -0.01418576547322
C           -1.08761655123931       -0.43524333955524       -0.34662347102162
C           -0.78387937156821       -1.72991497088888       -0.99873907640248
O            0.31084740554002       -2.21017489918834       -1.14705899652628
O           -1.89226334661540       -2.36991411782405       -1.41369083599276
H            3.63682573120324       -1.34346233284620        0.01346115284506
H            4.35763262648120        0.26049492015000        0.18335116707978
H            3.42591676828428       -0.16798280988171       -1.28841395687811
H            0.45539516270607        2.30682574220894        0.92158246506201
H           -1.86774837340519        2.84962655207124        1.52844919912922
H           -3.70204388524266        1.31180812932016        0.91162002808379
H           -3.19037314121169       -0.78726355521119       -0.27865682830205
H           -1.64088770340652       -3.21600922017771       -1.81509155068980
21
 energy: -39.628676273121 gnorm: 0.003545625286 xtb: 6.6.0 (conda-forge)
C            3.50515742584953       -0.28704293970140       -0.20246745000090
C            2.23760278642172        0.17694926078253        0.45463878684960
O            2.12156310461990        0.49634444170399        1.60553180631498
O            1.22499231986593        0.16284180750840       -0.43351659820660
C           -0.05813421768264        0.46011962057188       -0.02681785961902
C           -0.34548754725682        1.64613396787247        0.63237904319980
C           -1.65037543166258        1.93945156518223        0.98762031984814
C           -2.67624029542313        1.06322473397075        0.67182155178125
C           -2.39548066665546       -0.11517358204333        0.00811027366042
C           -1.08593064124479       -0.43992629638332       -0.34077778173703
C           -0.78425111360833       -1.73687184483350       -0.99096906210463
O            0.30683663541808       -2.23571355795097       -1.10211859197390
O           -1.89052399552408       -2.35117178473150       -1.45021996269230
H            3.60904487812129       -1.35439885435668       -0.01077020302536
H            4.35713621159783        0.23085568902626        0.23282784513060
H            3.45414422174930       -0.13062876840852       -1.27672057668987
H            0.45508736705101        2.32847879116294        0.87150108281955
H           -1.86146105729717        2.85894717843998        1.51197946129307
H           -3.69359682743827        1.29520228182884        0.94647207775788
H           -3.18470853360810       -0.80755103972998       -0.23870873665430
H           -1.64527462329312       -3.19997066991109       -1.84999542595112
21
 energy: -39.628695200725 gnorm: 0.002308252811 xtb: 6.6.0 (conda-forge)
C            3.50730965462831       -0.28217958156702       -0.19926649513678
C            2.23676192433362        0.17549436388720        0.45696277344508
O            2.11774115711017        0.49485763593792        1.60745095071759
O            1.22498335608393        0.15602735363315       -0.43312585402723
C           -0.05869944600639        0.45555794785784       -0.02803765396516
C           -0.34398405695794        1.64508546139034        0.62628021662059
C           -1.64757756835791        1.94072203470989        0.98304841273218
C           -2.67401690788108        1.06283748674961        0.67462984262503
C           -2.39579429448893       -0.11791523064267        0.01423942974715
C           -1.08727027670445       -0.44422878500364       -0.33757306196185
C           -0.78782765621211       -1.74062331951203       -0.99020151476241
O            0.30056609752490       -2.24311048148107       -1.09819805717819
O           -1.89373386854615       -2.34828583644657       -1.45640316920824
H            3.61059839990544       -1.35096613568690       -0.02018052974965
H            4.35617552077955        0.23075298055118        0.24508782161536
H            3.46176125902119       -0.11382285005738       -1.27109542698444
H            0.45780279240997        2.32772609648567        0.85962172453258
H           -1.85748557909944        2.86336275168317        1.50260042290689
H           -3.69022518492524        1.29625146731193        0.95187324542145
H           -3.18542733078334       -0.81125813248518       -0.22790649913489
H           -1.65155799183401       -3.19618522731544       -1.86000657825479
21
 energy: -39.628716494277 gnorm: 0.002424841389 xtb: 6.6.0 (conda-forge)
C            3.50745380853676       -0.28073905237661       -0.19791293646576
C            2.23502475409115        0.17441083550833        0.45726757026240
O            2.11220467422345        0.48916043355587        1.60828600384333
O            1.22408299407726        0.15558250756950       -0.43593017142626
C           -0.06013118185413        0.45485289501921       -0.03055259381786
C           -0.34480926886920        1.64871080115221        0.61670243092921
C           -1.64732454400423        1.94463361239701        0.97639136461339
C           -2.67271597907845        1.06138373342729        0.67982928789090
C           -2.39550667131797       -0.12233484446233        0.02444595636157
C           -1.08794850059587       -0.44760690616872       -0.33224053858977
C           -0.78677196157839       -1.74416807828990       -0.98438637865660
O            0.29999880265836       -2.25606167791226       -1.07383010582743
O           -1.89013972984446       -2.33932689370946       -1.47259556340446
H            3.59922161656848       -1.35504259703180       -0.04134657744685
H            4.35772800080501        0.21457691734146        0.26378044150811
H            3.47189150577119       -0.08919909040726       -1.26549824158872
H            0.45775095726598        2.33316051572834        0.84136456560274
H           -1.85869318674515        2.87092165000647        1.48924993861213
H           -3.68773326644251        1.29453712676254        0.96237805648161
H           -3.18436685138978       -0.81996347857703       -0.20824900496597
H           -1.64911597227740       -3.18738840953288       -1.87735350391543
21
 energy: -39.628735490283 gnorm: 0.001975305216 xtb: 6.6.0 (conda-forge)
C            3.50744071782930       -0.27911330408345       -0.20091620635826
C            2.23650212778509        0.17240505226606        0.45925972373301
O            2.11441644581243        0.48323796622199        1.61093436217994
O            1.22269115914000        0.15260208613196       -0.43159574035688
C           -0.06071635487125        0.45229581293822       -0.02607277154914
C           -0.34567377182806        1.64830939362480        0.61726972152464
C           -1.64855323015403        1.94697201057425        0.97277142687031
C           -2.67366658381183        1.06278126817505        0.67820404062471
C           -2.39617229688935       -0.12366605401175        0.02805131494656
C           -1.08871548964889       -0.45028343936436       -0.32672913985794
C           -0.78566356705259       -1.74600291063419       -0.97933040168891
O            0.30010463759455       -2.25975082189591       -1.06420999776024
O           -1.88664894682317       -2.33681313282751       -1.47625068790207
H            3.59498906573091       -1.35570032150933       -0.05740202824720
H            4.35965481764932        0.20580085968057        0.26729163223932
H            3.47298109737363       -0.07413644692963       -1.26511337475287
H            0.45776123378789        2.33168957275973        0.84114153974129
H           -1.86241580866647        2.87539608133548        1.48064742926164
H           -3.68863224293084        1.29894911314074        0.95853491019525
H           -3.18502472219317       -0.82150269020654       -0.20310018657696
H           -1.64455828783336       -3.18337009538620       -1.88358556626591
21
 energy: -39.628758836845 gnorm: 0.004037477243 xtb: 6.6.0 (conda-forge)
C            3.50520368602858       -0.27771696498334       -0.20760779136971
C            2.23760625639262        0.16743536332471        0.46094462192068
O            2.11548592852104        0.46980322027498        1.61447214872096
O            1.22025323038272        0.15137613871318       -0.42730621054485
C           -0.06098590993411        0.45039154899479       -0.01870810254844
C           -0.34777875641997        1.65204997659986        0.61333739211659
C           -1.65165261684699        1.95319584346843        0.96320978511575
C           -2.67523409369619        1.06360823876655        0.67755810681697
C           -2.39558832360530       -0.12957179950693        0.04063743950217
C           -1.08812688882852       -0.45611404811719       -0.31183381447168