16
 energy: -36.025438478094 gnorm: 0.176281126060 xtb: 6.6.0 (conda-forge)
C           -0.57370000000000       -0.77690000000000        0.03560000000000
C            0.72100000000000       -0.43150000000000       -0.73430000000000
C            1.51220000000000        0.66700000000000       -0.07130000000000
O            2.19280000000000        0.43040000000000        0.96320000000000
O            1.46410000000000        1.95880000000000       -0.58660000000000
O            1.51910000000000       -1.57520000000000       -0.91710000000000
C           -1.53500000000000        0.38050000000000        0.01790000000000
O           -1.47610000000000        1.27240000000000        0.90700000000000
O           -2.46340000000000        0.48980000000000       -1.01250000000000
O           -0.27520000000000       -1.14310000000000        1.35940000000000
H           -1.05650000000000       -1.63690000000000       -0.48450000000000
H            0.43080000000000       -0.07620000000000       -1.74760000000000
H            1.97790000000000        2.71300000000000       -0.14690000000000
H            1.74720000000000       -1.93730000000000       -0.02110000000000
H           -3.10720000000000        1.27090000000000       -1.05090000000000
H           -1.07780000000000       -1.60580000000000        1.71720000000000
16
 energy: -36.048843024715 gnorm: 0.066976525935 xtb: 6.6.0 (conda-forge)
C           -0.59292835615731       -0.76709264900434        0.02376998167053
C            0.71219508997375       -0.41265030287310       -0.74132028170454
C            1.49355239097417        0.67645600164907       -0.02916795593975
O            2.19452601452011        0.44802238618796        0.94339370481319
O            1.43382934389901        1.90412375760209       -0.58209000127058
O            1.50826154584842       -1.55309734797134       -0.90582022650837
C           -1.52733529332742        0.42342034715005        0.01345712549924
O           -1.50110078031235        1.27645398736571        0.88625070655326
O           -2.41951996209712        0.46949847206775       -0.99437546319602
O           -0.27834056166806       -1.13886089451516        1.34225389558606
H           -1.05243482644773       -1.61645595672440       -0.51511278170716
H            0.43531356983536       -0.07004880452489       -1.75058922598809
H            1.95904928614392        2.62894867622770       -0.15124028529873
H            1.74001576454693       -1.91079674672239       -0.02373891846454
H           -3.05110331372869        1.23538753398190       -1.01568852670946
H           -1.05377991200300       -1.59340845989660        1.72751825266497
16
 energy: -36.054049869641 gnorm: 0.030112531257 xtb: 6.6.0 (conda-forge)
C           -0.60828546518164       -0.75738349395931        0.01455889093857
C            0.70546101009486       -0.40618954470470       -0.75183637081331
C            1.51063721142801        0.67118921673196       -0.02509777860531
O            2.18146360532506        0.45569184410657        0.94342101352644
O            1.37713557274173        1.85749870819768       -0.57613794597886
O            1.49320247954834       -1.54935855514339       -0.90244481898402
C           -1.54422809916163        0.44395336265363        0.03252962313871
O           -1.49749474035460        1.30466459283768        0.86754172604022
O           -2.37292147652169        0.45165080644767       -0.98582925830435
O           -0.26331055899160       -1.13827491278259        1.32311741736239
H           -1.06921812659357       -1.58878468334390       -0.53381094227373
H            0.44556400075685       -0.06336402478669       -1.75555037836552
H            1.89349273975656        2.56120640173460       -0.13452285315156
H            1.73996513565512       -1.88666362464968       -0.02678246790593
H           -2.97473221425798        1.22174515662485       -1.00600020233898
H           -1.01653107424382       -1.57768124996435        1.74434434571523
16
 energy: -36.055096128986 gnorm: 0.008539757003 xtb: 6.6.0 (conda-forge)
C           -0.60736309449235       -0.75923645423112        0.01768097205027
C            0.70140891532208       -0.41592429693535       -0.75264944814536
C            1.48051125264657        0.67045187059339       -0.00713478018186
O            2.20503134872966        0.44496360747757        0.93232003162222
O            1.33174115330233        1.85247463445258       -0.56449648037611
O            1.48929784536977       -1.55862194996600       -0.90629762766761
C           -1.52291501445067        0.46187020230483        0.02218770380111
O           -1.49486999279475        1.31791956404768        0.87262023931795
O           -2.35150634256649        0.45317644113697       -0.99697766397239
O           -0.24942013747849       -1.14805998708671        1.32090028299283
H           -1.08344292812307       -1.57704562201838       -0.53822177586261
H            0.44428114740592       -0.06270179600242       -1.75371797714534
H            1.86548765797889        2.55025449151961       -0.13313062688292
H            1.74649396624139       -1.88335443801187       -0.02820863508302
H           -2.95204637398691        1.22470699032001       -1.01695227696149
H           -1.00248940310389       -1.57097325760076        1.75957806249431
16
 energy: -36.055606060314 gnorm: 0.009704581363 xtb: 6.6.0 (conda-forge)
C           -0.60466794504382       -0.76267087154194        0.02345595902411
C            0.69969572866189       -0.43116024688911       -0.75581929342888
C            1.47777045581040        0.66097857175555       -0.01798485176053
O            2.21755592451707        0.43823561278533        0.91356595520855
O            1.28167386380091        1.85307392389074       -0.54736575597806
O            1.48193121439843       -1.57666652530452       -0.91068274084786
C           -1.51115859625595        0.46676027641293        0.02216835266590
O           -1.48287389378431        1.32828475785126        0.87190330329149
O           -2.32790193083418        0.46593439571981       -1.00890041274536
O           -0.23288264832881       -1.15518406882790        1.32051691187223
H           -1.10034151723848       -1.57202412008821       -0.52879177292904
H            0.44202052121013       -0.07411924230719       -1.75604060809497
H            1.80540525240088        2.55449738668522       -0.10767734866723
H            1.75629019483507       -1.88413942895286       -0.02958954032293
H           -2.91633556991289        1.24934175019467       -1.03862386724883
H           -0.98598105423637       -1.56124217138372        1.77736570996137
16
 energy: -36.056121215841 gnorm: 0.012561610306 xtb: 6.6.0 (conda-forge)
C           -0.60215140593711       -0.76708568279160        0.02975504440512
C            0.69720798400067       -0.45137110566977       -0.76385249180146
C            1.46884697925784        0.64997619817190       -0.03274511728946
O            2.23550292044078        0.43146907404730        0.87807092935345
O            1.21401923034420        1.85116967167978       -0.52275394687499
O            1.47329593788820       -1.60025575604541       -0.91182023886564
C           -1.49789949436502        0.47141096909361        0.02539088484824
O           -1.47229375119697        1.33284512790665        0.87611053535867
O           -2.29066308827646        0.48933384033015       -1.02472689659090
O           -0.21302434763842       -1.16257760351194        1.31785206997487
H           -1.12102467104588       -1.56877995428833       -0.51357538359726
H            0.43882505998243       -0.09660117050079       -1.76521965039654
H            1.72226937561365        2.55733456154346       -0.07041326280636
H            1.77199682475857       -1.88041878838119       -0.02741649753166
H           -2.86088157278317        1.28811468808928       -1.06655650933086
H           -0.96382598104334       -1.54466406967303        1.79940053114475
16
 energy: -36.056612528539 gnorm: 0.014766875644 xtb: 6.6.0 (conda-forge)
C           -0.60028180564696       -0.77164068551576        0.03573557481772
C            0.69458389351529       -0.47397418759227       -0.77490781826184
C            1.45910754536739        0.63671468649989       -0.05177531372876
O            2.26247977972636        0.42489439596783        0.82797074279960
O            1.13284190978239        1.84373297479758       -0.49257616336889
O            1.46615743275629       -1.62484153153209       -0.90988834163570
C           -1.47883512213152        0.47968592663368        0.02756913388146
O           -1.46967654341671        1.32702581191379        0.89236269032864
O           -2.23859579419988        0.52463008883190       -1.04723530366192
O           -0.19345321477650       -1.16534199090549        1.31530129294412
H           -1.14039400907945       -1.56895487235951       -0.49462501965709
H            0.43274382803449       -0.12924749291979       -1.77899248314135
H            1.61678651965453        2.55723146572890       -0.02397575642967
H            1.78937519725530       -1.87680065980702       -0.02511787216636
H           -2.79250661874198        1.33472160065982       -1.09711330951931
H           -0.94013299809909       -1.51793553040133        1.82476794679931
16
 energy: -36.057139686280 gnorm: 0.011643296670 xtb: 6.6.0 (conda-forge)
C           -0.60072524797632       -0.77599606569186        0.04036771329791
C            0.69079040116205       -0.49097155906800       -0.78492750784075
C            1.44544881760004        0.62825139612919       -0.06723365652709
O            2.28644084249136        0.42478513341549        0.77736369357343
O            1.06637118072523        1.83066489317985       -0.46848651282548
O            1.46396861443537       -1.64003021878821       -0.90600291091436
C           -1.46827418459287        0.48103522662643        0.03436294592136
O           -1.48265442007061        1.30548181898785        0.92046521056093
O           -2.18327605596383        0.56456989052767       -1.07208674269444
O           -0.17972632144480       -1.16347010642293        1.31478079284455
H           -1.15103398588183       -1.57433572679230       -0.47713005677337
H            0.42306700198788       -0.16100273580749       -1.79221469265814
H            1.52864838526001        2.55048420030235        0.01127758510996
H            1.80617928596167       -1.87126350261336       -0.02476645494750
H           -2.72410007540189        1.38178451737282       -1.12456161150635
H           -0.92092423829149       -1.49008716135735        1.84629220537929
16
 energy: -36.057678076074 gnorm: 0.011634702757 xtb: 6.6.0 (conda-forge)
C           -0.60280633683412       -0.78035799584517        0.04169833009118
C            0.68801593802746       -0.50485625412452       -0.79380345145769
C            1.43934085138153        0.62070142733707       -0.08623992006109
O            2.31945562827676        0.42432039955060        0.71739247303806
O            1.00445231219503        1.81491142634022       -0.44101626184421
O            1.46375496394889       -1.65197837885149       -0.90036990904701
C           -1.45743203213126        0.48152244835387        0.03543523835063
O           -1.51974542380677        1.26244380608377        0.96091103226590
O           -2.12238584648178        0.60922205740239       -1.09871182782074
O           -0.17489679619677       -1.15371796148450        1.31735273899060
H           -1.15403446673799       -1.58520371323406       -0.46276069754585
H            0.41018480021751       -0.19452833723254       -1.80399686141685
H            1.45010314265251        2.54134764035891        0.04190493832934
H            1.82825795305537       -1.86280546809857       -0.02488245034130
H           -2.65738729872979        1.42648145120422       -1.14225193545887
H           -0.91467738883665       -1.44760254776002        1.86683856392783
16
 energy: -36.058114010765 gnorm: 0.018621876350 xtb: 6.6.0 (conda-forge)
C           -0.60690797319318       -0.78745825214867        0.04363093767820
C            0.68375698386043       -0.51658930113590       -0.79821292377162
C            1.43068800906796        0.61655065473106       -0.10026317325183
O            2.36864298289643        0.42683247413505        0.64722585292520
O            0.93930122739742        1.79855348519482       -0.40626065293042
O            1.46612176875970       -1.65907659533338       -0.89782805437125
C           -1.46136930063525        0.46888565677888        0.04142921723455
O           -1.56941891473244        1.20850638303029        0.99493355755912
O           -2.06184320572466        0.65334787602709       -1.12310346049155
O           -0.17570957762479       -1.14373083092461        1.32512408580478
H           -1.15047858495822       -1.60267766898068       -0.45042113826792
H            0.39287270977913       -0.22287542183898       -1.80907415780091
H            1.38889885488276        2.52661386000503        0.06379421910949
H            1.85964427993187       -1.85028967170238       -0.03071940190324
H           -2.58332787205310        1.47908343258081       -1.16162084892515
H           -0.92067138765414       -1.39577608041821        1.88886594140249
16
 energy: -36.058005093974 gnorm: 0.031347353687 xtb: 6.6.0 (conda-forge)
C           -0.60785163030540       -0.79150241576255        0.03781241415666
C            0.68542895230963       -0.52058108515219       -0.80304291360432
C            1.43290618567573        0.61672326959509       -0.11415196527898
O            2.37363356585050        0.44315084563276        0.60692227616991
O            0.92608686211430        1.77880739619490       -0.38563017326216
O            1.47367385951255       -1.66067745356115       -0.89957477822213
C           -1.47247715919076        0.45204609249031        0.04118351655063
O           -1.63292254643119        1.14462528768223        1.01896821118039
O           -2.02546128305948        0.68315381070007       -1.12704386523929
O           -0.18585606106600       -1.12624821852229        1.33462062457102
H           -1.13129556644284       -1.62427561769435       -0.44827899429155
H            0.38454357615582       -0.24020857578711       -1.81405875457137
H            1.38172862740133        2.50958366630958        0.07104180266452
H            1.89019375136803       -1.83996517571349       -0.04300588740763
H           -2.54684429514280        1.50860070336031       -1.14623125461337
H           -0.94528683874949       -1.33333252977190        1.89796974119756
16
 energy: -36.058725067987 gnorm: 0.020845587200 xtb: 6.6.0 (conda-forge)
C           -0.60344941631172       -0.79319909952848        0.04282749163974
C            0.68780313624102       -0.53710403893049       -0.80591187202281
C            1.44072119382821        0.60585642376026       -0.13299913800260
O            2.42071090281376        0.43875065161673        0.54948308983357
O            0.86192256668765        1.77453516806069       -0.34904048162589
O            1.46769857501597       -1.68239913652847       -0.90172322639138
C           -1.46380874471489        0.45519330598199        0.03675095280361
O           -1.66962111920424        1.11761079774296        1.03695968940929
O           -1.97870748582042        0.71276132762149       -1.14703343231195
O           -0.18288544442855       -1.12244875130389        1.34207159900369
H           -1.13497701961685       -1.62703144298493       -0.43643455214974
H            0.38176075239587       -0.25936972283313       -1.81659565512046
H            1.32161942745249        2.51077682326698        0.09994624050337
H            1.90874150822120       -1.84012054050849       -0.04833773658613
H           -2.50502054693824        1.53456071670067       -1.15737754535474
H           -0.95230828562135       -1.28847248213366        1.91491457637234
16
 energy: -36.058669639989 gnorm: 0.025717079859 xtb: 6.6.0 (conda-forge)
C           -0.60259600947022       -0.79284229771529        0.05108321948696
C            0.68364404543163       -0.53024451835333       -0.79491315998478
C            1.44167165297294        0.60960664446028       -0.12193671028943
O            2.44086645376392        0.43376784546481        0.55088942877266
O            0.88150923566787        1.78299008947443       -0.34784332667426
O            1.46185299071062       -1.67521062588466       -0.90557097668392
C           -1.47496873986743        0.45237903478385        0.03612027773560
O           -1.66148789399278        1.14070498055227        1.00403775160045
O           -1.99706773902040        0.69189584899392       -1.14275008220283
O           -0.18575884682434       -1.12785925921583        1.34868653281448
H           -1.13839538839401       -1.62327289792330       -0.43106159016054
H            0.38279336479756       -0.23613044304345       -1.80277671645769
H            1.35490702485833        2.51847353738908        0.09487956841223
H            1.89305372495946       -1.84570537041736       -0.05424577621019
H           -2.52923443749699        1.51215931972436       -1.16232504752151
H           -0.95058943809623       -1.31081188828954        1.90522660736268
16
 energy: -36.059077814707 gnorm: 0.020372029170 xtb: 6.6.0 (conda-forge)
C           -0.60103212631159       -0.79479644763233        0.05600649957720
C            0.67925827277497       -0.53334454699876       -0.79632890935853
C            1.43841070769126        0.60874419108632       -0.12980154428312
O            2.44645284293916        0.44028139856119        0.52535153703031
O            0.87793291743217        1.77320756250742       -0.34214812468174
O            1.45791175060511       -1.67770442574623       -0.91050316241539
C           -1.48519620667697        0.44247189937853        0.04442767224668
O           -1.71693532383293        1.10069635589621        1.03607920821018
O           -1.95907959528630        0.71495744267411       -1.16301558353969
O           -0.17932884989126       -1.12661063278680        1.35378373749373
H           -1.13730123267753       -1.62810103767525       -0.42161354747032
H            0.37435060351567       -0.23972637829049       -1.80386786917575
H            1.34934709350970        2.51177817896797        0.09918892238507
H            1.90601417092458       -1.83988178822007       -0.06462585246204
H           -2.50187960726338        1.52880872577850       -1.17607685650455
H           -0.94872541745275       -1.28088049750008        1.92064387294786
16
 energy: -36.059293152523 gnorm: 0.018429664372 xtb: 6.6.0 (conda-forge)
C           -0.59732502855288       -0.79287783279868        0.05120135659538
C            0.68259941753805       -0.53850089243910       -0.80254044178597
C            1.44755594865916        0.60139055316962       -0.13733938318890
O            2.45044962745883        0.43550805485407        0.50824067861381
O            0.86264227120713        1.76700240085830       -0.31991566971327
O            1.45842467658101       -1.68571674767812       -0.91609109225650
C           -1.48213517814026        0.44467670150533        0.03648171856003
O           -1.74435141211495        1.08258570933795        1.03804962840573
O           -1.94708845364958        0.71898374240674       -1.16094785484369
O           -0.17593444803170       -1.11445942634455        1.35235582775422
H           -1.13467276750110       -1.63037088451978       -0.41826440768591
H            0.37442542883154       -0.24553409433997       -1.80959054456446
H            1.33716114620293        2.50403183437311        0.11788941592428
H            1.91770716580433       -1.84101523960268       -0.07399890944754
H           -2.49625909594184        1.52888449589172       -1.17118433801174
H           -0.95299929835078       -1.23468837467372        1.93315401564444
16
 energy: -36.059566670357 gnorm: 0.014421399756 xtb: 6.6.0 (conda-forge)
C           -0.59699104716037       -0.79218839436913        0.05811083494917
C            0.67783386807526       -0.54064637467727       -0.80068559613670
C            1.45201393530625        0.59756883189737       -0.14324659672659
O            2.47889841327989        0.43186754170546        0.47153090132457
O            0.84792458685128        1.76178943267353       -0.29549521138851
O            1.45156782607453       -1.68898573479384       -0.92165594679503
C           -1.49185233335596        0.43902767235901        0.03585073434089
O           -1.78537025563990        1.05979847981253        1.03923546077471
O           -1.92229154511452        0.73069931322480       -1.17250163573538
O           -0.17687823856477       -1.10103623783204        1.36320456492220
H           -1.13211653264469       -1.63648553775163       -0.40294119575623
H            0.36404619162222       -0.24585819665785       -1.80615256084713
H            1.33230708319087        2.49824761715128        0.13358247217360
H            1.92795593189175       -1.83841604349514       -0.08649359932128
H           -2.47902082360694        1.53612055417520       -1.18504629335293
H           -0.94782706020498       -1.21160292342203        1.94020366757453
16
 energy: -36.059862016316 gnorm: 0.016957207012 xtb: 6.6.0 (conda-forge)
C           -0.59560335870534       -0.79340151036573        0.07084360927029
C            0.66574178544066       -0.53743940020376       -0.79639839898904
C            1.45442258236666        0.59315518834423       -0.14117370685675
O            2.51016144483858        0.41852725989834        0.43172943468068
O            0.85602477214867        1.75915315827333       -0.26106197756807
O            1.43782002339110       -1.68558275907602       -0.94017112879894
C           -1.51351432330861        0.42594651407956        0.03420309022081
O           -1.84014637847594        1.03513318923362        1.02089246330263
O           -1.89909162969428        0.73137602654604       -1.18755310629076
O           -0.16613645657308       -1.08579182633232        1.37544646217643
H           -1.13321627100295       -1.64495551314488       -0.37588961765658
H            0.34722801541363       -0.22642724313436       -1.79680416903133
H            1.35381413955473        2.49221979359749        0.16220379090576
H            1.92980036556216       -1.83968587366557       -0.11747644305101
H           -2.47677915552091        1.52428906840040       -1.21464787910127
H           -0.93032555543521       -1.16661607245010        1.96335757678704
16
 energy: -36.060034807790 gnorm: 0.023584695522 xtb: 6.6.0 (conda-forge)
C           -0.59172134427133       -0.78983542949291        0.07882875682619
C            0.66048990371054       -0.53984217521412       -0.79808465134596
C            1.46336668199762        0.58501405757619       -0.14965762588963
O            2.54613809671870        0.40958650013358        0.37501980450575
O            0.84676571835030        1.74659613161443       -0.21904542628378
O            1.42795746528413       -1.69048247863025       -0.95672254736967
C           -1.52912045996300        0.41633549225112        0.02846827865050
O           -1.93187776783968        0.98121116332359        1.02870737045368
O           -1.85700255798907        0.74793316363915       -1.20452374103111
O           -0.15923718758300       -1.05850338730133        1.38784421639843
H           -1.12648707734479       -1.65368620202353       -0.34985919332038
H            0.33340700871653       -0.22304523816892       -1.79435721751882
H            1.35476291045281        2.47681799505535        0.19683068697882
H            1.94281789577643       -1.84039228568042       -0.14844806458619
H           -2.45884040034653        1.52402070625051       -1.23442558945857
H           -0.92121888566981       -1.09182801333217        1.98692494299060
16
 energy: -36.059839860173 gnorm: 0.033993662487 xtb: 6.6.0 (conda-forge)
C           -0.58844067312642       -0.77974094390504        0.08212668985032
C            0.66063196652986       -0.53534453683080       -0.80130848101971
C            1.47373698038674        0.57922064164745       -0.14781588248442
O            2.52749116153311        0.39862110222706        0.38885682315032
O            0.87459756349780        1.74586685947374       -0.21602735335672
O            1.41920278791813       -1.69168208147143       -0.96891968855876
C           -1.53234558048904        0.42043091361948        0.02189848642282
O           -1.95271565833478        0.97613058905196        1.02050786842947
O           -1.86771783151375        0.73805074899433       -1.19891425929137
O           -0.15513770304898       -1.03666831096421        1.39012215312608
H           -1.11999041147763       -1.64842280860308       -0.33861593944199
H            0.33131682138561       -0.21377559265556       -1.79489616625018
H            1.37895432543730        2.47012069331051        0.20867175575846
H            1.94003682650587       -1.84443961553642       -0.16248875804372
H           -2.48735295278687        1.49960026437205       -1.24042963366417
H           -0.90206762241710       -1.07806792272976        1.98473238537343
16
 energy: -36.060339720910 gnorm: 0.015232587194 xtb: 6.6.0 (conda-forge)
C           -0.59124619054447       -0.78715530208138        0.07950400913125
C            0.65864932597231       -0.53933789830587       -0.80663774399641
C            1.46757282042873        0.57630601914815       -0.15078367601867
O            2.53865813638505        0.39309594972015        0.36728393335321
O            0.84856770179970        1.74191414792829       -0.19655418379122
O            1.42043725290423       -1.69237279296314       -0.97255914416226
C           -1.53085249028406        0.41258948143083        0.02186742158642
O           -1.94130677216365        0.96619107450928        1.01501211948767
O           -1.85583261810578        0.74599226967767       -1.20257319490706
O           -0.15010550627193       -1.03757933479965        1.38771928228236
H           -1.12041298439322       -1.65981880615399       -0.33633397556843
H            0.32514438652321       -0.22190884669742       -1.79919146277246
H            1.35281469393670        2.46411102199718        0.23075462672247
H            1.95366636521013       -1.83794349779554       -0.16865362534152
H           -2.46563893929153        1.51187595748163       -1.24547874576131
H           -0.90991518210557       -1.03605944309596        2.00412435975582
16
 energy: -36.060445053456 gnorm: 0.014999220586 xtb: 6.6.0 (conda-forge)
C           -0.58973986701684       -0.78503081889480        0.08467015005782
C            0.65695872884792       -0.53541939922127       -0.80272844078257
C            1.47144080300250        0.57711207167671       -0.14953941350344
O            2.56507139084873        0.39095105656364        0.34086271644267
O            0.85386944869171        1.73927605508685       -0.18055309961818
O            1.41877355716210       -1.68751257321864       -0.97821499471422
C           -1.54262420646983        0.40485386768386        0.01938881421512
O           -1.98355356396772        0.94219571983064        1.01360815799263
O           -1.84424304324675        0.74763523934496       -1.20977941126874
O           -0.14997904473510       -1.02257036694644        1.39599764231449
H           -1.11331703080646       -1.66488354190146       -0.32435943684316
H            0.32104471529177       -0.21164633946337       -1.79254428272506
H            1.36956553904846        2.45852183346604        0.24057146372644
H            1.94105006555375       -1.84681936323655       -0.18336531390691
H           -2.46816715455251        1.50319240268024       -1.25351563894301
H           -0.90595033765187       -1.00995584345017        2.00700108755596
16
 energy: -36.060619658963 gnorm: 0.004185640636 xtb: 6.6.0 (conda-forge)
C           -0.58774610406614       -0.78355809979725        0.08314735139075
C            0.65978951837139       -0.53601569412225       -0.80516136701000
C            1.47464955813132        0.57605049246707       -0.15225330056987
O            2.56160941784005        0.38997061877591        0.34231483822039
O            0.85622171045972        1.73686674045659       -0.17721972277235
O            1.41660526544704       -1.69061439429933       -0.98132857010250
C           -1.53986690600996        0.40572045581973        0.01823526614407
O           -1.98689501750367        0.93373081777026        1.01158710291357
O           -1.84817389228207        0.74834606976649       -1.20954936241154
O           -0.14900485070070       -1.02190203296845        1.39424812507403
H           -1.11237074771076       -1.66234110680615       -0.32579034069790
H            0.32376330322146       -0.21192968957899       -1.79468776428877
H            1.36847580620281        2.45322823530618        0.25285603312707
H            1.94228705474601       -1.85091250684413       -0.18353320053979
H           -2.47769999600616        1.49857401656804       -1.25133325715338
H           -0.90144412014049       -0.98531392251345        2.00596816867606
16
 energy: -36.060740061164 gnorm: 0.005693327786 xtb: 6.6.0 (conda-forge)
C           -0.58520176952995       -0.78325466394349        0.08006221832669
C            0.66286772951584       -0.53683378105059       -0.80962364900745
C            1.47670290030632        0.57175728733450       -0.14971210948394
O            2.56068219870770        0.38651430113266        0.34486255382600
O            0.85789229846541        1.73220929143004       -0.17085197610002
O            1.41617551156609       -1.69261474015957       -0.98799650081991
C           -1.54335313573155        0.39977762483236        0.01710845975684
O           -1.99335658377201        0.92048722796005        1.01113151204046
O           -1.85295965527719        0.74846272122091       -1.20918196036714
O           -0.14811564623366       -1.02079746210093        1.39139460432497