20
 energy: -32.777954495762 gnorm: 0.101684264216 xtb: 6.6.0 (conda-forge)
C            3.78710000000000        0.05530000000000       -0.17610000000000
C            2.39170000000000        0.19730000000000        0.33820000000000
O            2.20750000000000        0.51600000000000        1.54380000000000
N            1.28140000000000        0.06370000000000       -0.56270000000000
C           -0.09350000000000       -0.00030000000000       -0.14590000000000
C           -1.09110000000000        0.52170000000000       -0.98390000000000
C           -2.43710000000000        0.45260000000000       -0.61210000000000
C           -2.80270000000000       -0.15460000000000        0.59630000000000
C           -1.81620000000000       -0.69650000000000        1.42580000000000
C           -0.46920000000000       -0.62770000000000        1.05650000000000
O           -4.14030000000000       -0.22920000000000        0.97810000000000
H            4.10250000000000        1.00510000000000       -0.65550000000000
H            4.48330000000000       -0.18240000000000        0.65610000000000
H            3.83330000000000       -0.76460000000000       -0.92310000000000
H            1.48300000000000        0.09740000000000       -1.58790000000000
H           -0.82300000000000        0.99170000000000       -1.92180000000000
H           -3.19430000000000        0.86890000000000       -1.26420000000000
H           -2.09460000000000       -1.17980000000000        2.35380000000000
H            0.27090000000000       -1.08700000000000        1.69770000000000
H           -4.87850000000000        0.15240000000000        0.39820000000000
20
 energy: -32.792344274298 gnorm: 0.042254423855 xtb: 6.6.0 (conda-forge)
C            3.74035473173143        0.05226072316111       -0.20059506331433
C            2.35377127969985        0.21923852001316        0.34636523032988
O            2.16844155195910        0.47970908513899        1.53792518691720
N            1.28412180310292        0.06019599236935       -0.52611025961838
C           -0.08395160554624       -0.00321477703059       -0.13912127753547
C           -1.07513660450837        0.51791492676225       -0.97344736886920
C           -2.41489746968487        0.44904099119838       -0.61360807113768
C           -2.79087751537851       -0.14904303971527        0.58703731397192
C           -1.80940355899693       -0.69021971551323        1.41115271415491
C           -0.47219357811995       -0.62424121175490        1.04808873677577
O           -4.10271805898180       -0.23803952316663        0.98762407861344
H            4.07435541702932        0.98651452522300       -0.65992766418604
H            4.42177428423204       -0.16950883041163        0.62548204929568
H            3.80606194092963       -0.74922552979372       -0.94029947138351
H            1.48386894268029        0.09067634100973       -1.52654109482476
H           -0.80681837561014        0.98614064184807       -1.90891342728227
H           -3.16833434050816        0.86471309091032       -1.26660219807041
H           -2.09356525951169       -1.16922543544106        2.33636306563608
H            0.26845718289902       -1.06141664249258        1.69936765735751
H           -4.78311076741694        0.14772986768525        0.38705986316965
20
 energy: -32.796060874358 gnorm: 0.013732712919 xtb: 6.6.0 (conda-forge)
C            3.69659349543031        0.05908165044167       -0.22433307160211
C            2.31878356000595        0.19339975756697        0.37324433962735
O            2.15137978028254        0.44900498712287        1.55466512473747
N            1.28800292860489        0.05084107965968       -0.49180356548204
C           -0.07430639638249        0.00103469711533       -0.12759888209836
C           -1.05667754519255        0.52053786677063       -0.96556571325752
C           -2.39360907579110        0.44832692568189       -0.61776830598924
C           -2.77877774751681       -0.14870527563542        0.57698849329623
C           -1.80065620316700       -0.68687209557517        1.40489289762369
C           -0.46896571458276       -0.61570899731366        1.05339351720684
O           -4.07023658552791       -0.24557978926708        0.98707698346626
H            4.00865947222971        0.99356672685468       -0.68165685631379
H            4.38382573523194       -0.15298636220756        0.58985883919743
H            3.74956241929819       -0.73265034875385       -0.96048495618907
H            1.48820469750105        0.07188930325942       -1.47860804135295
H           -0.78364906289776        0.98628252842679       -1.89988120600597
H           -3.14294680810471        0.86168199906274       -1.27624573008132
H           -2.09549072427246       -1.16444298445816        2.32548526613204
H            0.27346267529744       -1.04106682688876        1.70875100235673
H           -4.69295890044648        0.15236515813702        0.36088986472832
20
 energy: -32.796793860220 gnorm: 0.008644790804 xtb: 6.6.0 (conda-forge)
C            3.68421350383627        0.07032122521096       -0.23701849283884
C            2.31427175673378        0.20042858386122        0.38637010359232
O            2.16063606935303        0.40115317967094        1.58771079189209
N            1.28630575566242        0.04812866206234       -0.47763361320352
C           -0.07383100247646       -0.00779099924705       -0.11882896099147
C           -1.04783188236346        0.51199737732722       -0.96367261643369
C           -2.38501829190982        0.44473414806478       -0.61998758585643
C           -2.77448095994392       -0.14812625592578        0.57580848702799
C           -1.80038345636586       -0.68426302235859        1.41267313428164
C           -0.46834192163997       -0.61586800865135        1.06755008234628
O           -4.06672094843927       -0.24212081685670        0.97519921556386
H            3.97402604743141        1.01343856166076       -0.69240509089242
H            4.39030341758044       -0.15295450021778        0.55858000894963
H            3.71085053105397       -0.71310997640028       -0.98587659842207
H            1.48637064634963        0.06309331523023       -1.46610169794925
H           -0.76655643074089        0.97872654138128       -1.89543674288403
H           -3.12995500673119        0.85746376702526       -1.28429809345128
H           -2.10428788503139       -1.15749549375793        2.33233250054643
H            0.27516612811897       -1.03154591608786        1.72827449259596
H           -4.66453607047769        0.16378962800840        0.32806067612680
20
 energy: -32.797226106227 gnorm: 0.009706996101 xtb: 6.6.0 (conda-forge)
C            3.67990605994901        0.08480928422948       -0.25207224300864
C            2.31860729282553        0.17630661308929        0.40304063404585
O            2.18227830468072        0.35717573555859        1.61099881773918
N            1.28513759211939        0.03895651002916       -0.45827604352799
C           -0.07507554933002       -0.01315428308824       -0.10261193252867
C           -1.03914194833400        0.50740566114769       -0.95720569819790
C           -2.37870413682972        0.44284252847993       -0.62158223982861
C           -2.77493429686629       -0.14768552428883        0.57361489648070
C           -1.80741231178065       -0.68246465286445        1.42173028506456
C           -0.47307413311256       -0.61695081190897        1.08624009294919
O           -4.07316276660022       -0.23643557581947        0.95668195032924
H            3.93121115952833        1.03930754866698       -0.71154586877570
H            4.41640921084421       -0.13558809257587        0.51840622210871
H            3.69032191297527       -0.69273876008785       -1.01017219015853
H            1.48583397563259        0.05414720647245       -1.44918704075279
H           -0.74681198263424        0.97036919685718       -1.88780895970844
H           -3.11797993246750        0.85587197747527       -1.29236593503355
H           -2.12239238856255       -1.15110616873501        2.34020330017706
H            0.26940526216700       -1.02780857616036        1.75067631286312
H           -4.65022132420430        0.17674018352310        0.29253563976320
20
 energy: -32.797526692131 gnorm: 0.007513303454 xtb: 6.6.0 (conda-forge)
C            3.67994430959057        0.09685333270482       -0.26637433314581
C            2.32795115912119        0.15677614208294        0.41235540876409
O            2.20543458943564        0.31694616215911        1.62359566523464
N            1.28543254394749        0.03058071592914       -0.44128409276897
C           -0.07570936414149       -0.01986122205290       -0.08686956724599
C           -1.03150734538603        0.50141611042268       -0.95041834519463
C           -2.37384404347302        0.44163877086908       -0.62279964654382
C           -2.77790529132188       -0.14651240921984        0.57086128345970
C           -1.81795351433145       -0.68073553151287        1.42887130668280
C           -0.48040631707394       -0.61896922319943        1.10317794626472
O           -4.08320109994311       -0.22979282787450        0.93931779891858
H            3.89828065844187        1.05873081844650       -0.72926257164119
H            4.44054927838196       -0.11186265206441        0.48350556784969
H            3.68666860109649       -0.67814662757439       -1.02745506728347
H            1.48459612817942        0.05295439936763       -1.43338655795723
H           -0.72867222321120        0.96096899925267       -1.87931562240071
H           -3.10763469681033        0.85625404043809       -1.29865727877243
H           -2.14337530800798       -1.14555557301530        2.34594582645658
H            0.25914082451301       -1.02832001453590        1.77112515151323
H           -4.64758888900721        0.18663658937694        0.26836712781020
20
 energy: -32.797833266640 gnorm: 0.006228273264 xtb: 6.6.0 (conda-forge)
C            3.67990811720337        0.11054272268126       -0.28422271468257
C            2.34049825383324        0.13348952515754        0.41982268632404
O            2.23298747233137        0.25878541163915        1.63581035944683
N            1.28655601486423        0.02130175379436       -0.42284054017935
C           -0.07510440529451       -0.02823698074114       -0.06848555628087
C           -1.02246928915863        0.49305152704705       -0.94186738913483
C           -2.36768411956058        0.43934042493677       -0.62474880857280
C           -2.78191578247208       -0.14417313354183        0.56728759173886
C           -1.83159107171156       -0.67716917841742        1.43599543642014
C           -0.49018563864620       -0.62058637679548        1.12170746904997
O           -4.09441268593869       -0.22092855564359        0.92089837760200
H            3.86268980348661        1.07867886284258       -0.74905557483546
H            4.46243332997404       -0.07845765014385        0.44616212324317
H            3.69250831520894       -0.66231218964598       -1.04667189718941
H            1.48081656093308        0.06159660915593       -1.41550260103955
H           -0.70856501696051        0.94689270780129       -1.86953713255563
H           -3.09503188862146        0.85460538682795       -1.30695551546361
H           -2.16798932943878       -1.13628647516255        2.35211728018830
H            0.24443416846043       -1.02719696862460        1.79662604590643
H           -4.64768280849234        0.19706257683265        0.24476036001428
20
 energy: -32.798134229441 gnorm: 0.007653421786 xtb: 6.6.0 (conda-forge)
C            3.67851799723305        0.12630904259219       -0.30438722355983
C            2.35480097593779        0.10150183256228        0.42725413665781
O            2.26549002163624        0.17360684671238        1.64969903490083
N            1.28816820588210        0.01119574076077       -0.40271433586677
C           -0.07298538297421       -0.03767386061165       -0.04791447551918
C           -1.01200177581721        0.48143824279303       -0.93265619768752
C           -2.35974428770845        0.43512731375916       -0.62842366669183
C           -2.78637850533379       -0.14010250716250        0.56303665586570
C           -1.84681458193770       -0.66928421052850        1.44402059662324
C           -0.50127516350569       -0.61901135804289        1.14257907028072
O           -4.10465129988274       -0.21008090724612        0.90226380790701
H            3.81750214481935        1.10139583490112       -0.77029053062362
H            4.48398777812780       -0.03640757171202        0.40622256707519
H            3.70385094556797       -0.64295708644852       -1.06984333002565
H            1.47376799333172        0.08336073257578       -1.39551208375816
H           -0.68710975737750        0.92801468820759       -1.85968090949920
H           -3.07957229800559        0.84889653024835       -1.31922225673078
H           -2.19376879944443       -1.12076409465865        2.35987639128731
H            0.22580956134836       -1.02179414008398        1.82821373853301
H           -4.64739377189709        0.20722893138229        0.21877901083167
20
 energy: -32.798408249595 gnorm: 0.010018358897 xtb: 6.6.0 (conda-forge)
C            3.67567964584344        0.14371430174308       -0.32608596996623
C            2.37135751857104        0.05509609753688        0.43425723275675
O            2.30533321363187        0.05467312783681        1.66175990430821
N            1.29026817251204        0.00094192832539       -0.38095345689211
C           -0.06919940633202       -0.04714252185801       -0.02498986050611
C           -0.99999908541946        0.46693386758840       -0.92298604812393
C           -2.35001344196328        0.42904556731985       -0.63415497394354
C           -2.79152807371852       -0.13380976936626        0.55809182356830
C           -1.86301565318285       -0.65492481754612        1.45385889982194
C           -0.51299588615424       -0.61202596923552        1.16692543881036
O           -4.11384967323054       -0.19819633165471        0.88283438763170
H            3.75868030978552        1.12724113977912       -0.78957450481859
H            4.50521534034669        0.01354424018412        0.36295625763599
H            3.72044140064503       -0.61861625310036       -1.09830443316285
H            1.46316666913936        0.12281207780910       -1.37276221684246
H           -0.66431349052740        0.90402561511502       -1.85052827699800
H           -3.06089287264117        0.83845737163980       -1.33655463400256
H           -2.21976856627068       -1.09553627685403        2.37101544633810
H            0.20358747821360       -1.00903486433145        1.86762249566938
H           -4.64795359924847        0.21280146906903        0.18887248871558
20
 energy: -32.798594987248 gnorm: 0.005879174495 xtb: 6.6.0 (conda-forge)
C            3.67300263915571        0.14969328880484       -0.33341558535384
C            2.37927944195359        0.02607815401269        0.43357835026381
O            2.32576300771293       -0.01917968112714        1.65811265665120
N            1.29154320353377       -0.00006730796457       -0.37314835052866
C           -0.06611591180892       -0.04857941488861       -0.01569559747637
C           -0.99517591368632        0.45980047940580       -0.91956831233803
C           -2.34554573689247        0.42499565365726       -0.63793081442200
C           -2.79389700152501       -0.12973388178242        0.55583744733729
C           -1.86843635305466       -0.64269516868173        1.45864241195509
C           -0.51675359116294       -0.60223414796337        1.17798250697567
O           -4.11533914779259       -0.19452668515836        0.87641973985692
H            3.72862632133734        1.13511253434245       -0.79029697222792
H            4.50836040517906        0.03597429049900        0.34809473994659
H            3.73177288088207       -0.60576602313359       -1.11220079245970
H            1.45630163214328        0.15528781099255       -1.36146189335373
H           -0.65690343314585        0.89188410191970       -1.84846036552231
H           -3.05230410268632        0.82977467349585       -1.34686100097882
H           -2.22692651843579       -1.07643639268499        2.37803131718399
H            0.19343730321379       -0.99556666948551        1.88738308391848
H           -4.65048912492073        0.20618438574029        0.17625743057227
20
 energy: -32.798735274822 gnorm: 0.013826836875 xtb: 6.6.0 (conda-forge)
C            3.66964734409362        0.15794515257742       -0.34017986835060
C            2.38670323181038       -0.01380074571876        0.43502036580941
O            2.34818794842401       -0.13802075641212        1.66019035162541
N            1.29244531053270        0.00607033466967       -0.36464030000942
C           -0.06364647387906       -0.04738340832896       -0.00860806758519
C           -0.99163628308529        0.45011342007299       -0.92060143551619
C           -2.34246188016547        0.41735015382275       -0.64510544466527
C           -2.79592484989759       -0.12408810754923        0.55329600906651
C           -1.87141113836850       -0.62386307590599        1.46489189023591
C           -0.51861196568507       -0.58635878870009        1.18932210226836
O           -4.11564771627184       -0.18823737072584        0.87207258841426
H            3.68798822994983        1.14817543320724       -0.78887136719737
H            4.51502951679092        0.06067187502791        0.33171298892303
H            3.74354515174953       -0.58788642661828       -1.12752429360041
H            1.45133014883810        0.20360309743798       -1.34581226735168
H           -0.65166720359211        0.87256672157845       -1.85384531266668
H           -3.04560449237360        0.81381974122911       -1.36217821741618
H           -2.23044259786448       -1.04517294660085        2.38999647736262
H            0.18636358141958       -0.97121610251510        1.90841223349599
H           -4.65398586242570        0.19571179945188        0.16375156715740
20
 energy: -32.798932451562 gnorm: 0.007947946374 xtb: 6.6.0 (conda-forge)
C            3.66868897907138        0.15437898023226       -0.33201877209945
C            2.38401083832094       -0.03626357186737        0.43026874581498
O            2.34542475447941       -0.19985696977897        1.64498458814977
N            1.29237774335185        0.01875107029107       -0.37000007684722
C           -0.06316402007186       -0.03979526526906       -0.01679896881447
C           -0.99578398760718        0.44894361446879       -0.92856727020540
C           -2.34569757159693        0.41332146769531       -0.64909608203864
C           -2.79510563817776       -0.12034531380804        0.55443021561954
C           -1.86397059221520       -0.60991648141416        1.46575558882332
C           -0.51300173985070       -0.57118152734183        1.18576469990384
O           -4.10975438973545       -0.18888804444391        0.88169243727199
H            3.67657266999538        1.14552770066443       -0.77332613445070
H            4.50957268601805        0.05871421293064        0.34564145007353
H            3.75308804426488       -0.58498196519855       -1.12411094922708
H            1.45363324538436        0.23998181256185       -1.34176582302208
H           -0.66194844743169        0.86709618102379       -1.86652519480812
H           -3.05091395819149        0.80212793394569       -1.36808738618175
H           -2.21650655501880       -1.02457365749850        2.39648495632588
H            0.19306420508358       -0.94940073924687        1.90616992600717
H           -4.66038626607282        0.17636056205364        0.17040404970480
20
 energy: -32.799054301936 gnorm: 0.009392402495 xtb: 6.6.0 (conda-forge)
C            3.67036449088093        0.15731117878495       -0.33135283004461
C            2.38584195147687       -0.06952646903932        0.42724411337523
O            2.35129672352901       -0.29595723542889        1.63396694957350
N            1.29225144248366        0.02978682411540       -0.36882820992047
C           -0.06350640834948       -0.03530258320001       -0.01868194348015
C           -0.99763505273190        0.44199487830137       -0.93535422414229
C           -2.34817994219080        0.40532166022466       -0.65475069461954
C           -2.79622316805983       -0.11631313907324        0.55488004989704
C           -1.86261672196463       -0.59403447452882        1.47095130405432
C           -0.51190420698933       -0.55569536817772        1.19020050109162
O           -4.10991874932995       -0.18437542529359        0.88587592676586
H            3.65969992609230        1.15269206741690       -0.76416219908322
H            4.51131778386592        0.06806090461021        0.34784546779547
H            3.76979320588883       -0.57572403805525       -1.12815838170072
H            1.45519770572943        0.29310315132957       -1.33369136418505
H           -0.66603567597982        0.85176589252762       -1.87826448975844
H           -3.05422292937095        0.78442704083161       -1.37857771456707
H           -2.21347875192876       -0.99856244929723        2.40725564905995
H            0.19531846157380       -0.92408457331328        1.91433794702776
H           -4.66716008462532        0.16511215726528        0.17056414286074
20
 energy: -32.799205870469 gnorm: 0.005356090933 xtb: 6.6.0 (conda-forge)
C            3.67632482144682        0.15499350685712       -0.32490130545146
C            2.38170694753858       -0.07915431432972        0.41960224561224
O            2.34244608272304       -0.34663250718538        1.61551696892909
N            1.29050140738113        0.04873483658637       -0.37294171645411
C           -0.06704921112223       -0.02533164678053       -0.02687732036788
C           -1.00486183375549        0.43921778634352       -0.94576728747787
C           -2.35605833609787        0.39685578725931       -0.65812695410592
C           -2.79624528455854       -0.11749853338887        0.55692380254689
C           -1.85795242435228       -0.58689381369707        1.47334817021641
C           -0.50866046875732       -0.54333421019988        1.18773085771926
O           -4.11060654396716       -0.18415247386824        0.89574421420065
H            3.67798375365794        1.15169195903497       -0.75055440392603
H            4.50633491614955        0.05504324198377        0.36647927784384
H            3.78166510319892       -0.57550535815735       -1.12243911719289
H            1.46222851229703        0.33135688596968       -1.33130769946832
H           -0.67836477845257        0.84285426461688       -1.89300371886609
H           -3.06744321562025        0.76706949546199       -1.38196474995264
H           -2.20632269146418       -0.98607036135310        2.41310222049147
H            0.20650424937319       -0.90344754413263        1.90771197026327
H           -4.67193100561834        0.16020299897939        0.18302454544000
20
 energy: -32.799277070165 gnorm: 0.006462315296 xtb: 6.6.0 (conda-forge)
C            3.67904335644178        0.15258371348846       -0.32450520891122
C            2.38254296815717       -0.09407405311718        0.41579490672546
O            2.35040450830657       -0.40753459102301        1.60251987486187
N            1.28861280922367        0.07122737315029       -0.36899671679542
C           -0.06927985834324       -0.01352135015888       -0.02550288408040
C           -1.00880345846119        0.43586999875487       -0.94978528978102
C           -2.36022358517732        0.38725828685130       -0.66188818250727
C           -2.79678049731795       -0.11826451466833        0.55729458948020
C           -1.85772054407050       -0.57865295936142        1.47705601851204
C           -0.50913620128434       -0.52948546498711        1.19135184064962
O           -4.11255351901149       -0.18464798687364        0.89698455062954
H            3.67922796608409        1.15400110948654       -0.74534111717113
H            4.50795119379259        0.04997027112132        0.37059112239263
H            3.79039905301893       -0.57314122915837       -1.12564667959832
H            1.46252301733327        0.36822395516278       -1.32048945539861
H           -0.68443547588301        0.83178468479838       -1.90052593959680
H           -3.07438868375733        0.74685687648899       -1.38869615341557
H           -2.20612967543560       -0.97338797142446        2.41827056789161
H            0.21006492670540       -0.88166497800908        1.91132823895511
H           -4.67111830032154        0.15659882947881        0.18148591715758
20
 energy: -32.799313293758 gnorm: 0.005811522270 xtb: 6.6.0 (conda-forge)
C            3.67998897951661        0.14818997488371       -0.32654454129223
C            2.38246256699884       -0.09085922880433        0.41387023806556
O            2.35469392841974       -0.41162386125758        1.59347694027680
N            1.28704105438450        0.08598900177770       -0.36323992429410
C           -0.07087684814879       -0.00609060692447       -0.02062701670093
C           -1.01025139572108        0.43615202817569       -0.94762713514025
C           -2.36159050859437        0.38171532922603       -0.66198754717488
C           -2.79673196913545       -0.12157011844239        0.55764468410894
C           -1.85952240440917       -0.57921648493617        1.47943141175600
C           -0.51108550161673       -0.52466757011351        1.19503119874297
O           -4.11530009850352       -0.18878594870844        0.89293025269199
H            3.69184971867910        1.15159074483398       -0.74841825087315
H            4.50823032514289        0.03806284929449        0.37004276165098
H            3.78882824622958       -0.57687084724271       -1.12831184690380
H            1.45975883792477        0.38382738389804       -1.31409192481713
H           -0.68555253997939        0.82941160158999       -1.89849856703234
H           -3.07742619443644        0.73494063957746       -1.39008557890726
H           -2.20975730798260       -0.97568574472694        2.41853532557775
H            0.21049327821340       -0.87371578513383        1.91469167223863
H           -4.66505216698190        0.15920664303356        0.17507784802636
20
 energy: -32.799356134166 gnorm: 0.004337476807 xtb: 6.6.0 (conda-forge)
C            3.67857907592118        0.14763640312076       -0.32966370454472
C            2.38429734580486       -0.10068143284098        0.41052608645640
O            2.36169845053242       -0.45878470732359        1.58370306495574
N            1.28669021151519        0.10056682562425       -0.35703686215256
C           -0.07040872403525        0.00013984014687       -0.01544119839737
C           -1.01013294435434        0.43314632579529       -0.94682537622871
C           -2.36138629085162        0.37463014740289       -0.66481828307277
C           -2.79737000949666       -0.12267719744649        0.55707739974475
C           -1.86049438486710       -0.57132089814300        1.48383335922629
C           -0.51150301747459       -0.51261383839147        1.20225292502088
O           -4.11658593576646       -0.19211922526588        0.88878270694785
H            3.69443652009702        1.15036205779283       -0.74656312029702
H            4.50516914006695        0.03262893749171        0.36547509898512
H            3.78867059401279       -0.57262645973665       -1.13591720715853
H            1.45549822509817        0.41805376854882       -1.30455431356698
H           -0.68510206711700        0.82193670156896       -1.89943132432910
H           -3.07710393106526        0.71954361656009       -1.39685436209826
H           -2.21089162695544       -0.96401908136570        2.42453306858348
H            0.20922703880221       -0.85627223764666        1.92567092240423
H           -4.66308766986707        0.15247045410825        0.16655111952116
20
 energy: -32.799383380346 gnorm: 0.002614111838 xtb: 6.6.0 (conda-forge)
C            3.67719997370842        0.14787340999707       -0.33278192632417
C            2.38611243160980       -0.10644018206361        0.41137067594590
O            2.36337266638154       -0.46833727164059        1.58275179575975
N            1.28749185343787        0.10057287317739       -0.35311659570529
C           -0.06891576193479        0.00092216773156       -0.01144303840058
C           -1.00773084620015        0.43379780975069       -0.94430990456046
C           -2.35906262017302        0.37502955084904       -0.66543878399815
C           -2.79808132794493       -0.12296165148363        0.55576661831569
C           -1.86189260630781       -0.56861774078908        1.48476934673507
C           -0.51182543249287       -0.50839576858039        1.20645579679679
O           -4.11699489532916       -0.19556137264252        0.88409438290314
H            3.68777402459077        1.15197996795284       -0.74832554062894
H            4.50767926639366        0.03365386417067        0.35748006567340
H            3.78599272436447       -0.57120536935273       -1.14096320843269
H            1.45290676315890        0.42006834559074       -1.29986687953362
H           -0.68084462773867        0.82356231635456       -1.89621992242925
H           -3.07292319925616        0.71928462379708       -1.39909722062223
H           -2.21228642753411       -0.96050342986535        2.42611209288086
H            0.20588312125541       -0.85164259517093        1.93306292977378
H           -4.66365507998919        0.14692045221750        0.16099931585087
20
 energy: -32.799410393148 gnorm: 0.001835617920 xtb: 6.6.0 (conda-forge)
C            3.67656056619016        0.14359973924919       -0.33619887084060
C            2.38911451681618       -0.11390447428149        0.40963476926535
O            2.36672290501697       -0.49152001298955        1.57516311251023
N            1.28827979105060        0.11123329484852       -0.34691474349681
C           -0.06748677633334        0.00801363372871       -0.00534914673208
C           -1.00613720085210        0.43611070915175       -0.94127494065454