 Entering Gaussian System
 *********************************************
 Gaussian 98:
 frequency output generated by the xtb code
 *********************************************
                         Standard orientation:
 --------------------------------------------------------------------
  Center     Atomic     Atomic              Coordinates (Angstroms)
  Number     Number      Type              X           Y           Z
 --------------------------------------------------------------------
    1          6             0       -0.763213   -0.543502    0.447858
    2          6             0        0.519319    0.293579    0.182669
    3          7             0        1.749995   -0.527943    0.178988
    4          6             0        2.162537   -0.876356    1.561143
    5          6             0        3.186513   -2.009807    1.604000
    6          8             0        3.710872   -2.603173    0.676307
    7          8             0        3.516076   -2.331602    2.875683
    8          6             0        2.848489    0.174903   -0.534827
    9          6             0        2.652717    0.169896   -2.051131
   10          8             0        1.690040   -0.208881   -2.698469
   11          8             0        3.718619    0.703927   -2.690842
   12          7             0       -2.062368    0.143038    0.273414
   13          6             0       -2.136537    1.396509    1.050603
   14          6             0       -3.571360    1.861322    1.291184
   15          8             0       -4.611809    1.406085    0.847170
   16          8             0       -3.609845    2.945146    2.100647
   17          6             0       -2.406299    0.351108   -1.154229
   18          6             0       -2.744585   -0.953394   -1.873781
   19          8             0       -2.906946   -2.068685   -1.406467
   20          8             0       -2.884836   -0.762093   -3.206293
   21          1             0       -0.740374   -0.914999    1.479416
   22          1             0       -0.732918   -1.445461   -0.174793
   23          1             0        0.609536    1.101633    0.920001
   24          1             0        0.399323    0.782777   -0.788321
   25          1             0        1.302798   -1.242069    2.131703
   26          1             0        2.579187   -0.001749    2.074431
   27          1             0        4.150804   -3.071430    2.765887
   28          1             0        3.806647   -0.325090   -0.359646
   29          1             0        2.933863    1.212772   -0.191564
   30          1             0        3.479904    0.616439   -3.637925
   31          1             0       -1.586320    2.204227    0.554599
   32          1             0       -1.707858    1.229727    2.046656
   33          1             0       -4.569952    3.130244    2.180781
   34          1             0       -3.301838    0.974110   -1.249207
   35          1             0       -1.592750    0.851467   -1.689258
   36          1             0       -3.087430   -1.662675   -3.536387
 --------------------------------------------------------------------
     1 basis functions        1 primitive gaussians
     1 alpha electrons        1 beta electrons

 Harmonic frequencies (cm**-1), IR intensities (km*mol⁻¹),
 Raman scattering activities (A**4/amu), Raman depolarization ratios,
 reduced masses (AMU), force constants (mDyne/A) and normal coordinates:
                      1                      2                      3
                        a                      a                      a 
 Frequencies --    43.0227                46.7288                58.4488
 Red. masses --    14.1379                14.0508                13.6016
 Frc consts  --     0.0000                 0.0000                 0.0000
 IR Inten    --     0.0223                 0.1327                 0.3359
 Raman Activ --     0.0000                 0.0000                 0.0000
 Depolar     --     0.0000                 0.0000                 0.0000
 Atom AN      X      Y      Z        X      Y      Z        X      Y      Z
   1   6    -0.03   0.04  -0.03    -0.04   0.02   0.14     0.07   0.11  -0.00
   2   6    -0.03   0.02  -0.07    -0.04  -0.00   0.05     0.03   0.14  -0.11
   3   7    -0.04   0.02  -0.02    -0.07  -0.02  -0.01     0.05   0.17  -0.07
   4   6    -0.04   0.09  -0.00    -0.02  -0.04  -0.03     0.02   0.17  -0.06
   5   6    -0.00   0.12   0.05    -0.04  -0.07  -0.07    -0.17  -0.01  -0.06
   6   8     0.00   0.11   0.08    -0.06  -0.06  -0.10    -0.15   0.04  -0.06
   7   8     0.02   0.22   0.07    -0.06  -0.14  -0.09    -0.49  -0.27  -0.06
   8   6    -0.04  -0.04  -0.07    -0.08  -0.02  -0.04     0.07   0.15  -0.05
   9   6    -0.01  -0.21  -0.08    -0.16   0.03  -0.03     0.16   0.05  -0.07
  10   8    -0.02  -0.24  -0.06    -0.19  -0.00  -0.00     0.19   0.09  -0.11
  11   8     0.06  -0.42  -0.13    -0.25   0.13  -0.07     0.28  -0.11  -0.05
  12   7    -0.04   0.05  -0.01    -0.04   0.02   0.11     0.03   0.05   0.02
  13   6    -0.05   0.00   0.06    -0.04   0.04   0.06    -0.01   0.07  -0.02
  14   6    -0.07  -0.08   0.15    -0.03   0.09  -0.00    -0.03  -0.02   0.05
  15   8    -0.07  -0.08   0.14    -0.04   0.09   0.01    -0.02  -0.03   0.03
  16   8    -0.10  -0.21   0.32    -0.03   0.18  -0.10    -0.07  -0.11   0.17
  17   6    -0.03   0.12   0.00    -0.00  -0.01   0.09    -0.03  -0.04   0.03
  18   6     0.10   0.14  -0.10     0.26  -0.06   0.04     0.01  -0.10   0.11
  19   8     0.09   0.14  -0.17     0.26  -0.06   0.05     0.02  -0.08   0.20
  20   8     0.30   0.21  -0.12     0.65  -0.12   0.01     0.06  -0.22   0.11
  21   1    -0.00   0.01  -0.01    -0.01   0.03   0.05     0.04   0.05   0.01
  22   1    -0.02   0.01  -0.01    -0.01  -0.01   0.06     0.02   0.02   0.02
  23   1    -0.01   0.02  -0.03     0.00   0.00   0.01     0.01   0.06  -0.06
  24   1    -0.01  -0.01  -0.03    -0.03  -0.01   0.01    -0.00   0.01  -0.05
  25   1    -0.01   0.03   0.00    -0.00  -0.01   0.00    -0.00   0.10  -0.00
  26   1    -0.02   0.04  -0.01     0.01  -0.02  -0.01     0.06   0.03  -0.04
  27   1     0.01   0.06   0.03    -0.02  -0.04  -0.03    -0.16  -0.10  -0.01
  28   1    -0.01   0.00  -0.00    -0.02  -0.01  -0.03     0.02   0.05   0.01
  29   1    -0.02   0.00  -0.05    -0.01  -0.01  -0.00     0.00   0.05  -0.03
  30   1     0.02  -0.13  -0.03    -0.08   0.04  -0.01     0.09  -0.05  -0.01
  31   1    -0.03   0.02   0.02    -0.00   0.00   0.01    -0.03   0.02  -0.03
  32   1     0.00  -0.01   0.01    -0.02   0.02   0.02     0.02   0.04  -0.01
  33   1    -0.03  -0.07   0.10    -0.01   0.05  -0.04    -0.02  -0.04   0.06
  34   1    -0.03   0.01   0.01    -0.03  -0.05   0.02    -0.02  -0.03   0.01
  35   1    -0.02   0.07   0.01    -0.02   0.04   0.04    -0.02  -0.01  -0.01
  36   1     0.10   0.05  -0.05     0.21  -0.04  -0.01     0.02  -0.06   0.04
                      4                      5                      6
                        a                      a                      a 
 Frequencies --    71.9119                77.8498                85.6912
 Red. masses --    13.8266                12.9933                13.5882
 Frc consts  --     0.0000                 0.0000                 0.0000
 IR Inten    --     0.1323                 0.0782                 0.9182
 Raman Activ --     0.0000                 0.0000                 0.0000
 Depolar     --     0.0000                 0.0000                 0.0000
 Atom AN      X      Y      Z        X      Y      Z        X      Y      Z
   1   6     0.04  -0.05  -0.11     0.10   0.06   0.05     0.01  -0.12  -0.05
   2   6     0.04  -0.04  -0.09     0.09   0.13   0.22    -0.03  -0.06  -0.10
   3   7     0.04  -0.04  -0.03     0.10   0.13   0.14     0.02   0.01  -0.05
   4   6     0.02   0.11   0.02     0.21   0.12   0.09     0.01   0.09  -0.02
   5   6    -0.06   0.04   0.18     0.07  -0.01   0.01    -0.03   0.06   0.04
   6   8     0.04   0.02   0.28     0.13   0.10  -0.03     0.05   0.09   0.08
   7   8    -0.34  -0.01   0.26    -0.15  -0.32  -0.01    -0.23  -0.02   0.08
   8   6     0.03  -0.10  -0.09     0.02   0.06  -0.02     0.00   0.03  -0.05
   9   6    -0.12   0.03  -0.07    -0.14  -0.06   0.00     0.05   0.01  -0.06
  10   8    -0.12  -0.07  -0.04    -0.26  -0.07   0.15     0.07   0.02  -0.10
  11   8    -0.32   0.35  -0.13    -0.21  -0.21  -0.18     0.09  -0.01  -0.03
  12   7     0.06  -0.03  -0.09     0.11   0.03  -0.01    -0.02  -0.16   0.09
  13   6     0.13  -0.02  -0.09    -0.01  -0.01   0.02     0.00  -0.22   0.20
  14   6     0.16  -0.02   0.05    -0.05  -0.08  -0.08     0.03  -0.08   0.09
  15   8     0.15   0.06   0.04    -0.00  -0.18  -0.11    -0.00  -0.26   0.38
  16   8     0.25  -0.15   0.23    -0.17  -0.03  -0.18     0.14   0.31  -0.43
  17   6     0.03  -0.03  -0.08     0.19   0.05  -0.03    -0.09  -0.01   0.11
  18   6     0.01  -0.02  -0.07     0.06   0.08  -0.01    -0.04   0.05  -0.01
  19   8     0.01  -0.03  -0.09     0.14   0.08  -0.03    -0.08   0.03  -0.12
  20   8    -0.02  -0.03  -0.08    -0.19   0.15   0.02     0.05   0.18  -0.01
  21   1     0.01  -0.02  -0.03     0.01  -0.01   0.01     0.03  -0.05  -0.02
  22   1     0.01  -0.01  -0.04     0.05   0.03  -0.01    -0.00  -0.02  -0.03
  23   1     0.00  -0.01  -0.03     0.02   0.00   0.10    -0.02  -0.01  -0.04
  24   1     0.02  -0.02  -0.03     0.03   0.08   0.09    -0.01  -0.03  -0.03
  25   1     0.00   0.07   0.02     0.07   0.08   0.06     0.00   0.05   0.00
  26   1     0.03   0.04  -0.03     0.12   0.02  -0.00     0.01   0.03  -0.03
  27   1    -0.10  -0.02   0.09    -0.06  -0.10  -0.02    -0.07  -0.01   0.03
  28   1    -0.00  -0.07  -0.06     0.01   0.02  -0.02     0.00   0.02  -0.00
  29   1     0.05  -0.04  -0.01     0.02   0.03  -0.03    -0.01   0.01  -0.02
  30   1    -0.11   0.12  -0.03    -0.08  -0.07  -0.04     0.03  -0.00  -0.01
  31   1     0.02  -0.01  -0.04    -0.00   0.01   0.03     0.04  -0.06   0.11
  32   1     0.06  -0.00  -0.04    -0.02  -0.01   0.02    -0.04  -0.11   0.07
  33   1     0.07  -0.04   0.08    -0.05  -0.02  -0.06     0.04   0.11  -0.14
  34   1     0.01  -0.01  -0.02     0.08   0.05  -0.03    -0.04  -0.02   0.06
  35   1     0.01  -0.01  -0.03     0.08  -0.02   0.00    -0.04   0.04   0.04
  36   1    -0.01  -0.01  -0.02    -0.08   0.04   0.01     0.02   0.05  -0.03
                      7                      8                      9
                        a                      a                      a 
 Frequencies --    94.3869               109.9396               118.4648
 Red. masses --    13.5103                15.3465                14.6137
 Frc consts  --     0.0000                 0.0000                 0.0000
 IR Inten    --     2.0177                 1.2693                 5.2432
 Raman Activ --     0.0000                 0.0000                 0.0000
 Depolar     --     0.0000                 0.0000                 0.0000
 Atom AN      X      Y      Z        X      Y      Z        X      Y      Z
   1   6     0.04   0.12   0.09    -0.04  -0.03  -0.01    -0.09  -0.05   0.12
   2   6     0.09  -0.01  -0.12    -0.02  -0.05   0.03    -0.08  -0.12  -0.07
   3   7     0.04  -0.12  -0.10    -0.00  -0.04   0.03    -0.08  -0.12  -0.07
   4   6     0.00  -0.08  -0.07     0.04  -0.03   0.02    -0.08  -0.07  -0.05
   5   6     0.01  -0.07   0.02     0.17   0.08  -0.04     0.05   0.05  -0.01
   6   8     0.02  -0.16   0.08     0.48   0.39  -0.08     0.30   0.23   0.01
   7   8    -0.01   0.03   0.06    -0.09  -0.25  -0.06    -0.16  -0.08   0.01
   8   6     0.10  -0.21  -0.10    -0.01  -0.02   0.02    -0.08  -0.06  -0.03
   9   6     0.09  -0.08  -0.10     0.03  -0.08   0.02     0.01  -0.03  -0.04
  10   8     0.23  -0.30  -0.17     0.12  -0.25  -0.00     0.04   0.02  -0.12
  11   8    -0.06   0.36  -0.03    -0.03   0.08   0.06     0.08  -0.06   0.05
  12   7     0.06   0.13   0.07    -0.05  -0.01   0.02    -0.08  -0.04   0.10
  13   6    -0.07   0.10   0.08    -0.03  -0.01   0.02    -0.05   0.00   0.05
  14   6    -0.14  -0.05  -0.02    -0.02   0.05  -0.04    -0.03   0.11  -0.01
  15   8    -0.08  -0.20  -0.05    -0.03   0.17  -0.16    -0.05   0.25  -0.11
  16   8    -0.36  -0.01  -0.09    -0.02  -0.02   0.06     0.02   0.06   0.08
  17   6     0.06   0.12   0.06    -0.10   0.00   0.03    -0.04  -0.04   0.08
  18   6     0.02   0.12   0.10    -0.15   0.01   0.03     0.13  -0.04   0.00
  19   8     0.05   0.15   0.15    -0.47   0.07   0.06     0.56  -0.16  -0.12
  20   8    -0.07   0.12   0.13     0.22  -0.04  -0.02    -0.33   0.13   0.08
  21   1     0.02   0.08   0.04    -0.01  -0.02  -0.01    -0.01   0.03   0.05
  22   1    -0.01   0.01   0.06    -0.02  -0.00  -0.01    -0.05  -0.04   0.07
  23   1     0.06   0.03  -0.07    -0.01  -0.02   0.01    -0.01  -0.01  -0.05
  24   1     0.02  -0.04  -0.05    -0.00  -0.01   0.01    -0.04  -0.07  -0.04
  25   1    -0.00  -0.02  -0.02     0.03  -0.04   0.00    -0.02  -0.05  -0.02
  26   1    -0.00  -0.02  -0.02    -0.01   0.00   0.01    -0.06  -0.00  -0.01
  27   1     0.00   0.01   0.03    -0.02  -0.06  -0.03    -0.03  -0.01   0.01
  28   1     0.01  -0.10  -0.04     0.00   0.00   0.02    -0.02  -0.01   0.00
  29   1     0.07  -0.07  -0.01    -0.02  -0.00  -0.00    -0.04  -0.02  -0.00
  30   1    -0.02   0.12  -0.01     0.00   0.02   0.01     0.04  -0.01   0.01
  31   1    -0.03   0.05   0.03     0.01  -0.01   0.01     0.00  -0.02   0.01
  32   1    -0.03   0.04   0.03    -0.02  -0.01   0.01    -0.03   0.00   0.02
  33   1    -0.10  -0.03  -0.04    -0.00   0.00   0.01     0.01   0.03   0.02
  34   1     0.02   0.04   0.01    -0.03   0.00   0.02    -0.03  -0.04   0.02
  35   1     0.02   0.02   0.02    -0.03  -0.00   0.00    -0.02   0.03   0.04
  36   1    -0.03   0.03   0.04     0.06  -0.01  -0.01    -0.08   0.04   0.00
                     10                     11                     12
                        a                      a                      a 
 Frequencies --   120.5795               136.1195               168.9458
 Red. masses --    14.8271                13.1477                13.1243
 Frc consts  --     0.0000                 0.0000                 0.0000
 IR Inten    --     1.4826                 2.2162                 1.5503
 Raman Activ --     0.0000                 0.0000                 0.0000
 Depolar     --     0.0000                 0.0000                 0.0000
 Atom AN      X      Y      Z        X      Y      Z        X      Y      Z
   1   6    -0.01   0.03  -0.06    -0.07   0.12  -0.05     0.02   0.08   0.10
   2   6    -0.03   0.11   0.06     0.01   0.01  -0.00     0.08   0.07   0.15
   3   7    -0.02   0.15   0.10    -0.05  -0.10  -0.01     0.11   0.05   0.05
   4   6    -0.03   0.09   0.07    -0.08  -0.16  -0.01     0.29   0.07   0.01
   5   6    -0.08   0.04  -0.08     0.07  -0.03  -0.00     0.13  -0.11   0.06
   6   8    -0.23   0.09  -0.20     0.28   0.12   0.01     0.08  -0.28   0.13
   7   8     0.06  -0.06  -0.16    -0.04  -0.12   0.01     0.11  -0.06   0.10
   8   6    -0.01   0.11   0.10     0.00  -0.12   0.04     0.07  -0.01  -0.09
   9   6     0.07  -0.14   0.10    -0.02   0.01   0.05     0.05   0.02  -0.09
  10   8     0.25  -0.60   0.12    -0.06   0.13   0.05     0.07   0.05  -0.13
  11   8    -0.11   0.22   0.10     0.02  -0.05   0.08     0.07   0.05  -0.09
  12   7    -0.03  -0.01  -0.06    -0.01   0.21  -0.19    -0.07  -0.03   0.03
  13   6    -0.01   0.00  -0.06    -0.02   0.23  -0.24    -0.21   0.03  -0.05
  14   6     0.02   0.02   0.06    -0.05   0.01   0.11    -0.20   0.09   0.05
  15   8    -0.03   0.02   0.21    -0.10  -0.24   0.50    -0.34   0.24   0.17
  16   8     0.14   0.08   0.01    -0.00   0.14  -0.04    -0.03   0.11   0.09
  17   6    -0.04  -0.03  -0.06     0.05   0.07  -0.21    -0.09  -0.14   0.00
  18   6     0.03  -0.05  -0.08     0.03  -0.02  -0.07    -0.06  -0.11  -0.10
  19   8     0.20  -0.09  -0.12     0.07   0.04   0.06    -0.10  -0.19  -0.27
  20   8    -0.13  -0.01  -0.07    -0.03  -0.21  -0.10    -0.01   0.03  -0.11
  21   1    -0.01  -0.01  -0.02    -0.05   0.05  -0.01    -0.00   0.03   0.03
  22   1     0.02   0.02  -0.03    -0.02   0.02  -0.00     0.02   0.02   0.03
  23   1    -0.03   0.02   0.03     0.02  -0.00   0.00     0.03   0.00   0.06
  24   1     0.00   0.05   0.02     0.02   0.01   0.00     0.02   0.04   0.05
  25   1    -0.01   0.03   0.03    -0.02  -0.09  -0.03     0.09   0.09   0.06
  26   1     0.01   0.01   0.03    -0.07  -0.04   0.03     0.16   0.01  -0.05
  27   1     0.01  -0.02  -0.07     0.01  -0.01   0.00     0.00  -0.04   0.04
  28   1     0.00   0.06   0.07    -0.01  -0.06  -0.00     0.02  -0.02  -0.04
  29   1    -0.03   0.05  -0.02     0.03  -0.05   0.04     0.04  -0.00  -0.03
  30   1    -0.02   0.03   0.03     0.00   0.00   0.02     0.02   0.02  -0.02
  31   1    -0.01   0.00  -0.03    -0.08   0.08  -0.12    -0.08   0.01  -0.04
  32   1     0.02   0.00  -0.03     0.07   0.11  -0.10    -0.04   0.04  -0.02
  33   1     0.04   0.03   0.02    -0.00   0.01   0.03     0.00   0.05   0.05
  34   1    -0.02  -0.02  -0.02     0.03   0.03  -0.09    -0.04  -0.05   0.00
  35   1    -0.02   0.01  -0.01     0.03  -0.02  -0.07    -0.04  -0.03  -0.00
  36   1    -0.03  -0.00  -0.02    -0.01  -0.06   0.01    -0.00   0.02  -0.05
                     13                     14                     15
                        a                      a                      a 
 Frequencies --   185.1831               197.6042               199.0929
 Red. masses --    10.3638                 9.6054                11.0247
 Frc consts  --     0.0000                 0.0000                 0.0000
 IR Inten    --     1.3791                 0.7719                 8.2546
 Raman Activ --     0.0000                 0.0000                 0.0000
 Depolar     --     0.0000                 0.0000                 0.0000
 Atom AN      X      Y      Z        X      Y      Z        X      Y      Z
   1   6     0.00   0.00  -0.34     0.10   0.11  -0.21    -0.04  -0.07   0.11
   2   6     0.03   0.13   0.13     0.14   0.08  -0.21    -0.05  -0.07   0.08
   3   7    -0.00   0.06  -0.03     0.08  -0.04   0.07    -0.09  -0.10   0.11
   4   6    -0.03  -0.10  -0.06     0.01   0.09   0.11     0.07   0.23   0.14
   5   6     0.02  -0.06  -0.00    -0.02   0.07   0.03    -0.05   0.14   0.03
   6   8     0.12  -0.10   0.07    -0.12   0.18  -0.10    -0.24   0.25  -0.13
   7   8    -0.03   0.04   0.04     0.11  -0.09  -0.06     0.09  -0.05  -0.07
   8   6     0.03   0.00  -0.03     0.26  -0.36   0.05    -0.05  -0.32  -0.07
   9   6     0.02  -0.00  -0.03     0.03  -0.05   0.11    -0.04  -0.07  -0.07
  10   8     0.03  -0.02  -0.03    -0.11   0.14   0.23     0.03   0.11  -0.30
  11   8     0.01   0.01  -0.06    -0.03  -0.05   0.02     0.08   0.03   0.19
  12   7    -0.04  -0.01  -0.16     0.01   0.01   0.00    -0.00  -0.05  -0.05
  13   6    -0.13  -0.26   0.22    -0.02  -0.01   0.03    -0.07  -0.12   0.05
  14   6    -0.09  -0.02   0.04    -0.03   0.01  -0.01    -0.05  -0.03   0.01
  15   8    -0.18   0.20  -0.02    -0.03   0.03  -0.05    -0.11   0.08   0.04
  16   8     0.07   0.00   0.02    -0.06   0.01  -0.02     0.09  -0.02   0.02
  17   6    -0.05   0.17  -0.12    -0.32  -0.00   0.09     0.31   0.01  -0.12
  18   6     0.04   0.08   0.02    -0.05  -0.03   0.01     0.06   0.02  -0.03
  19   8     0.21   0.17   0.27     0.08  -0.09  -0.06    -0.04   0.09   0.09
  20   8    -0.04  -0.25  -0.01    -0.01   0.01   0.02     0.00  -0.09  -0.04
  21   1    -0.01  -0.12  -0.14     0.06   0.01  -0.07    -0.02   0.00   0.04
  22   1     0.03   0.07  -0.20     0.02   0.05  -0.08    -0.00  -0.03   0.05
  23   1    -0.01  -0.06   0.14     0.03   0.05  -0.09    -0.01  -0.01   0.01
  24   1     0.04   0.16   0.09     0.07  -0.02  -0.08    -0.01  -0.03   0.02
  25   1    -0.02  -0.05  -0.04     0.00   0.05   0.04     0.04   0.14   0.12
  26   1    -0.03  -0.04   0.02     0.02   0.03   0.01     0.09   0.09  -0.05
  27   1     0.01   0.02   0.03     0.02  -0.02  -0.06     0.00  -0.02  -0.06
  28   1     0.00  -0.01  -0.01     0.02  -0.25  -0.05    -0.05  -0.17  -0.06
  29   1     0.03  -0.00  -0.01     0.23  -0.14   0.07     0.08  -0.11   0.00
  30   1    -0.00  -0.00  -0.01    -0.05   0.03   0.01     0.05   0.06   0.03
  31   1     0.04  -0.05   0.20    -0.00   0.00   0.02     0.01  -0.03   0.06
  32   1    -0.13  -0.20   0.08    -0.01  -0.01   0.01    -0.05  -0.07   0.02
  33   1     0.03   0.05  -0.01    -0.02   0.00  -0.01     0.03   0.02   0.01
  34   1    -0.02   0.04  -0.02    -0.17  -0.10   0.10     0.16   0.09  -0.10
  35   1    -0.02   0.06  -0.03    -0.18   0.11  -0.01     0.17  -0.10  -0.00
  36   1     0.01  -0.09   0.05     0.03   0.00  -0.01    -0.03  -0.02   0.01
                     16                     17                     18
                        a                      a                      a 
 Frequencies --   212.6167               217.7064               295.7761
 Red. masses --    10.3735                 9.9281                12.2576
 Frc consts  --     0.0000                 0.0000                 0.0000
 IR Inten    --     1.8102                 1.7516                 0.6975
 Raman Activ --     0.0000                 0.0000                 0.0000
 Depolar     --     0.0000                 0.0000                 0.0000
 Atom AN      X      Y      Z        X      Y      Z        X      Y      Z
   1   6     0.17   0.11   0.16    -0.09  -0.14  -0.02     0.04  -0.07   0.06
   2   6     0.11   0.11  -0.15    -0.03  -0.33  -0.39    -0.01   0.02   0.08
   3   7     0.05   0.05  -0.12     0.16  -0.09   0.00    -0.01   0.03  -0.01
   4   6    -0.23  -0.14  -0.10     0.20   0.13   0.05    -0.02  -0.01  -0.03
   5   6    -0.08   0.03  -0.06     0.07  -0.02   0.04    -0.01   0.01  -0.03
   6   8     0.01   0.08  -0.04    -0.04  -0.07   0.01     0.01  -0.00  -0.02
   7   8    -0.12   0.13  -0.04     0.11  -0.13   0.01    -0.05   0.05  -0.02
   8   6     0.18  -0.01   0.05     0.02   0.21   0.08     0.04  -0.04  -0.00
   9   6     0.06   0.01   0.07     0.01   0.06   0.09     0.03   0.00   0.01
  10   8    -0.05  -0.02   0.29    -0.04  -0.02   0.25     0.02   0.00   0.03
  11   8    -0.06  -0.02  -0.15    -0.06   0.00  -0.05     0.02   0.01  -0.03
  12   7     0.09  -0.09   0.04    -0.03   0.01  -0.09    -0.02  -0.19   0.04
  13   6    -0.12  -0.14   0.11    -0.09  -0.04  -0.00    -0.09  -0.02  -0.36
  14   6    -0.10  -0.01   0.03    -0.10   0.01   0.00    -0.11  -0.16  -0.20
  15   8    -0.21   0.17   0.06    -0.17   0.11   0.04    -0.32   0.02   0.01
  16   8     0.08   0.01   0.03    -0.00   0.01   0.02     0.39  -0.25  -0.16
  17   6     0.33  -0.12  -0.04     0.04   0.11  -0.09    -0.06   0.03   0.12
  18   6     0.03  -0.07  -0.03     0.03   0.10  -0.02     0.04   0.13   0.11
  19   8    -0.15  -0.08  -0.10     0.06   0.18   0.15     0.06   0.19   0.22
  20   8     0.01   0.02  -0.02    -0.02  -0.09  -0.04     0.05   0.20   0.15
  21   1     0.07   0.11   0.07    -0.01   0.04   0.02     0.01  -0.01   0.02
  22   1     0.06  -0.01   0.11    -0.08  -0.09   0.06     0.03  -0.03   0.02
  23   1     0.06   0.07  -0.09    -0.04   0.03  -0.24    -0.01  -0.01   0.04
  24   1     0.01  -0.02  -0.07    -0.01  -0.25  -0.19    -0.02   0.03   0.04
  25   1    -0.09  -0.13  -0.12     0.06   0.10   0.06    -0.01  -0.01  -0.01
  26   1    -0.16  -0.05   0.06     0.12   0.05  -0.05    -0.01  -0.01   0.00
  27   1    -0.01   0.05   0.01     0.00  -0.05  -0.02    -0.01   0.01   0.01
  28   1     0.03  -0.04   0.01     0.05   0.16   0.05    -0.00  -0.04  -0.01
  29   1     0.08  -0.01   0.04    -0.11   0.08   0.01     0.05  -0.02   0.01
  30   1    -0.06  -0.02  -0.03    -0.04  -0.03  -0.01    -0.01   0.00  -0.01
  31   1    -0.01  -0.03   0.08    -0.02  -0.00   0.02    -0.13  -0.02  -0.24
  32   1    -0.07  -0.07   0.05    -0.04  -0.03   0.00     0.05   0.15  -0.11
  33   1     0.03   0.05   0.01     0.00   0.02   0.01     0.12   0.01   0.04
  34   1     0.16   0.05  -0.07     0.02   0.04  -0.02    -0.05  -0.03   0.08
  35   1     0.17  -0.14   0.01     0.02   0.03  -0.01    -0.05   0.08   0.05
  36   1    -0.04   0.02  -0.02    -0.01  -0.04   0.02     0.01   0.06   0.02
                     19                     20                     21
                        a                      a                      a 
 Frequencies --   300.9026               318.1319               333.4586
 Red. masses --    12.0402                10.7100                11.2048
 Frc consts  --     0.0000                 0.0000                 0.0000
 IR Inten    --     1.8086                 0.9185                 5.0326
 Raman Activ --     0.0000                 0.0000                 0.0000
 Depolar     --     0.0000                 0.0000                 0.0000
 Atom AN      X      Y      Z        X      Y      Z        X      Y      Z
   1   6    -0.06  -0.02   0.02     0.14   0.31   0.16    -0.14   0.02   0.41
   2   6    -0.08   0.01   0.02     0.06   0.26  -0.19    -0.08  -0.03   0.20
   3   7    -0.12  -0.05  -0.12    -0.07   0.11   0.08    -0.01   0.05   0.02
   4   6     0.23   0.17  -0.24     0.02  -0.03   0.02    -0.01  -0.00   0.01
   5   6     0.05   0.01  -0.28     0.06  -0.07  -0.02    -0.01   0.01   0.00
   6   8     0.20  -0.23  -0.09     0.14  -0.13   0.05    -0.02   0.02  -0.01
   7   8    -0.30   0.35  -0.16     0.04  -0.04   0.00    -0.01   0.00  -0.00
   8   6     0.01  -0.15   0.06    -0.18   0.04   0.00     0.14  -0.06  -0.01
   9   6    -0.00  -0.02   0.16    -0.20  -0.06   0.01     0.17   0.05  -0.02
  10   8    -0.04  -0.05   0.28    -0.11  -0.03  -0.20     0.10   0.04   0.13
  11   8     0.02  -0.02   0.25    -0.06  -0.05   0.37     0.06   0.04  -0.33
  12   7    -0.06  -0.01   0.02     0.06   0.01  -0.05    -0.14  -0.04   0.00
  13   6     0.01  -0.00   0.02    -0.02  -0.12   0.07     0.01  -0.07   0.05
  14   6     0.03   0.01   0.02     0.03  -0.10  -0.04     0.08  -0.02   0.00
  15   8     0.06  -0.02  -0.01     0.01  -0.05  -0.05     0.15  -0.09  -0.05
  16   8    -0.03   0.01   0.02     0.22  -0.11  -0.06     0.06  -0.02  -0.00
  17   6     0.03   0.00  -0.01    -0.11   0.04  -0.02    -0.18   0.09  -0.04
  18   6     0.00   0.00  -0.01    -0.02   0.03  -0.07    -0.04   0.11  -0.18
  19   8     0.01   0.01  -0.01    -0.01   0.07  -0.00     0.04   0.21   0.00
  20   8    -0.00  -0.01  -0.02    -0.05  -0.09  -0.10    -0.10  -0.25  -0.28
  21   1    -0.01  -0.01   0.00     0.06   0.22   0.09    -0.09   0.15   0.17
  22   1    -0.02  -0.00   0.00     0.08   0.01   0.16    -0.02  -0.07   0.23
  23   1    -0.00  -0.02   0.03     0.05   0.18  -0.17     0.01  -0.00   0.05
  24   1    -0.03   0.03   0.02     0.02  -0.06  -0.12    -0.07  -0.02   0.06
  25   1     0.12   0.16   0.08     0.02  -0.01   0.02    -0.01  -0.01  -0.01
  26   1     0.21   0.05  -0.19     0.03  -0.02   0.02    -0.02  -0.00   0.02
  27   1    -0.08   0.07   0.07     0.01  -0.01   0.01    -0.00  -0.00  -0.00
  28   1    -0.03  -0.12   0.00    -0.03   0.05  -0.01     0.00  -0.09  -0.00
  29   1     0.08  -0.07   0.07    -0.07   0.03  -0.04     0.11  -0.04   0.03
  30   1     0.02   0.00   0.06     0.06   0.01   0.07    -0.05  -0.01  -0.06
  31   1     0.01  -0.01   0.00     0.03  -0.02   0.09     0.04  -0.03   0.04
  32   1     0.00  -0.01   0.00    -0.05  -0.09   0.03    -0.02  -0.05   0.02
  33   1    -0.01  -0.01  -0.00     0.06   0.01  -0.00     0.01  -0.01  -0.00
  34   1     0.02   0.02  -0.02    -0.07  -0.04   0.05    -0.09  -0.03   0.05
  35   1     0.03  -0.02   0.01    -0.09   0.08  -0.02    -0.09   0.11   0.01
  36   1    -0.00  -0.01   0.00    -0.00  -0.03  -0.00    -0.00  -0.10   0.01
                     22                     23                     24
                        a                      a                      a 
 Frequencies --   384.6471               407.1454               442.8468
 Red. masses --    10.6513                11.7284                11.0930
 Frc consts  --     0.0000                 0.0000                 0.0000
 IR Inten    --     3.3809                 3.8170                12.5323
 Raman Activ --     0.0000                 0.0000                 0.0000
 Depolar     --     0.0000                 0.0000                 0.0000
 Atom AN      X      Y      Z        X      Y      Z        X      Y      Z
   1   6    -0.21   0.01  -0.12     0.19  -0.20  -0.03    -0.08  -0.19   0.06
   2   6    -0.29   0.19  -0.20     0.06   0.01  -0.05    -0.03  -0.23   0.06
   3   7    -0.15   0.40   0.17     0.13   0.17   0.09     0.24   0.28   0.33
   4   6    -0.02   0.02   0.07    -0.02  -0.04   0.03     0.03  -0.06   0.16
   5   6     0.04  -0.09   0.01     0.01  -0.00  -0.05     0.05   0.01  -0.16
   6   8     0.18  -0.16   0.10     0.02  -0.03  -0.03     0.03  -0.09  -0.13
   7   8     0.13  -0.12  -0.01    -0.07   0.07  -0.03    -0.22   0.22  -0.09
   8   6     0.05  -0.06   0.01     0.06   0.01  -0.03     0.15  -0.00   0.00
   9   6     0.05   0.02  -0.01    -0.10  -0.05  -0.02    -0.06  -0.06  -0.03
  10   8     0.05   0.01  -0.00    -0.07  -0.01  -0.12    -0.02   0.02  -0.18
  11   8     0.01   0.01  -0.13    -0.04  -0.03   0.17    -0.05  -0.02   0.05
  12   7    -0.31  -0.11   0.05     0.02  -0.35   0.21     0.18   0.23  -0.17
  13   6    -0.02  -0.03  -0.03     0.05  -0.01  -0.09     0.03   0.04   0.04
  14   6     0.06   0.02   0.01     0.02   0.08   0.11    -0.03  -0.02  -0.03
  15   8     0.13  -0.07  -0.03     0.03   0.12   0.05    -0.07   0.01   0.02
  16   8     0.02   0.02   0.02    -0.29   0.16   0.07     0.03  -0.03  -0.02
  17   6     0.10  -0.03  -0.02     0.07  -0.05   0.13    -0.04   0.05  -0.08
  18   6     0.00  -0.01   0.06     0.07   0.13  -0.16    -0.01  -0.06   0.06
  19   8     0.03  -0.03   0.05     0.00   0.26   0.04    -0.02  -0.11  -0.02
  20   8     0.05   0.10   0.10    -0.09  -0.21  -0.24     0.03   0.07   0.10
  21   1    -0.01  -0.01  -0.04     0.10  -0.11  -0.03    -0.08  -0.01   0.03
  22   1    -0.05   0.01  -0.04     0.06  -0.03  -0.05    -0.07  -0.07   0.05
  23   1    -0.16   0.13  -0.13    -0.03   0.03  -0.03    -0.11   0.00  -0.04
  24   1    -0.05  -0.04  -0.11     0.02  -0.03  -0.03    -0.02  -0.14  -0.02
  25   1    -0.00  -0.01   0.02    -0.02  -0.08  -0.05    -0.01  -0.15  -0.06
  26   1     0.03  -0.04   0.07    -0.06  -0.04   0.10    -0.07  -0.08   0.21
  27   1     0.04  -0.02  -0.03    -0.02   0.01   0.02    -0.07   0.03   0.07
  28   1    -0.06  -0.17  -0.02     0.01  -0.02  -0.04     0.02  -0.06  -0.04
  29   1     0.20  -0.03   0.01     0.07   0.01  -0.04     0.14   0.01  -0.05
  30   1    -0.02  -0.01  -0.03     0.03   0.02   0.03    -0.01   0.02   0.01
  31   1     0.00  -0.04  -0.06    -0.07  -0.05  -0.20     0.03   0.06   0.11
  32   1     0.02   0.00  -0.02     0.12   0.14  -0.06    -0.05  -0.06   0.03
  33   1     0.00  -0.00   0.00    -0.09  -0.01  -0.05     0.01   0.00   0.01
  34   1     0.11   0.09  -0.12     0.00  -0.03   0.09    -0.05  -0.04   0.01
  35   1     0.14  -0.12   0.05     0.01   0.06   0.11    -0.08   0.04  -0.10
  36   1     0.01   0.04  -0.01    -0.05  -0.08   0.03     0.01   0.03  -0.01
                     25                     26                     27
                        a                      a                      a 
 Frequencies --   496.0691               500.7598               504.3497
 Red. masses --    10.6983                10.1294                10.7160
 Frc consts  --     0.0000                 0.0000                 0.0000
 IR Inten    --    13.7465                 4.1230                13.9545
 Raman Activ --     0.0000                 0.0000                 0.0000
 Depolar     --     0.0000                 0.0000                 0.0000
 Atom AN      X      Y      Z        X      Y      Z        X      Y      Z
   1   6     0.10   0.04  -0.08    -0.03   0.19  -0.02    -0.10   0.05  -0.07
   2   6    -0.02   0.06  -0.04     0.20   0.02   0.02     0.03  -0.06  -0.03
   3   7    -0.22  -0.14   0.30     0.16  -0.17   0.13     0.12   0.00  -0.01
   4   6    -0.03  -0.07   0.23     0.08  -0.07   0.13     0.04   0.00  -0.00
   5   6    -0.12  -0.17  -0.10     0.07   0.01  -0.06     0.08   0.07  -0.00
   6   8     0.14   0.01  -0.09    -0.06   0.02  -0.14    -0.06  -0.02  -0.02
   7   8    -0.10   0.16  -0.06    -0.14   0.14   0.00    -0.03   0.01   0.01
   8   6    -0.19  -0.10   0.18     0.05  -0.04   0.04     0.08   0.01  -0.04
   9   6     0.16  -0.07   0.03     0.09  -0.22  -0.01    -0.01  -0.06  -0.01
  10   8     0.15   0.15  -0.07    -0.03   0.12  -0.06    -0.05   0.00  -0.01
  11   8    -0.05   0.03  -0.33    -0.05   0.02  -0.03    -0.00  -0.00   0.08
  12   7     0.14   0.05   0.12    -0.34  -0.22  -0.07    -0.12   0.17   0.36
  13   6     0.03   0.07   0.06    -0.09  -0.14  -0.12    -0.04   0.22   0.18
  14   6    -0.03  -0.05   0.01     0.06   0.08   0.00    -0.11  -0.09  -0.04
  15   8    -0.06   0.02  -0.02     0.14  -0.05   0.01    -0.07  -0.13  -0.13
  16   8     0.04  -0.03  -0.03    -0.06   0.08   0.06     0.27  -0.11  -0.07
  17   6     0.07  -0.00   0.09    -0.12  -0.02  -0.09    -0.01   0.10   0.20
  18   6     0.09   0.01  -0.04    -0.22   0.01   0.05    -0.22   0.12  -0.01
  19   8    -0.06   0.02  -0.07     0.13  -0.00   0.12     0.09  -0.02  -0.24
  20   8    -0.04  -0.11  -0.06     0.06   0.13   0.05    -0.03  -0.26  -0.12
  21   1     0.07  -0.07  -0.05    -0.01   0.11   0.01     0.02  -0.09  -0.06
  22   1     0.03   0.06  -0.09     0.04   0.02   0.05    -0.10   0.07  -0.10
  23   1    -0.02   0.08  -0.07     0.10   0.01  -0.00     0.00  -0.03   0.01
  24   1     0.04  -0.07  -0.06     0.11   0.00  -0.00     0.03   0.01   0.00
  25   1     0.03   0.09   0.19     0.03  -0.06   0.02     0.00  -0.07  -0.06
  26   1     0.16  -0.05  -0.02    -0.01  -0.02   0.06    -0.07   0.01   0.05
  27   1     0.06   0.11   0.06    -0.05   0.01   0.08    -0.06  -0.04   0.01
  28   1    -0.02   0.08   0.15     0.09   0.17   0.10     0.03   0.03  -0.01
  29   1    -0.19  -0.00   0.01    -0.17   0.04  -0.10     0.00   0.02  -0.04
  30   1    -0.15   0.03  -0.05    -0.08   0.13  -0.00     0.01   0.04   0.01
  31   1    -0.03   0.04  -0.00     0.03  -0.10  -0.06    -0.06   0.07   0.01
  32   1     0.02   0.06   0.02    -0.01  -0.06  -0.04    -0.01   0.13   0.06
  33   1     0.02   0.02  -0.01    -0.02  -0.03   0.02     0.10   0.07   0.04
  34   1    -0.01  -0.04   0.05     0.07   0.13  -0.11     0.13   0.19  -0.04
  35   1    -0.01   0.05   0.03     0.08  -0.16   0.01     0.14  -0.15   0.10
  36   1    -0.06  -0.03   0.03     0.15   0.03  -0.06     0.14  -0.13   0.05
                     28                     29                     30
                        a                      a                      a 
 Frequencies --   535.1157               540.9113               544.1194
 Red. masses --     8.1354                 8.2540                 8.9295
 Frc consts  --     0.0000                 0.0000                 0.0000
 IR Inten    --    15.9363                 1.5384                16.8691
 Raman Activ --     0.0000                 0.0000                 0.0000
 Depolar     --     0.0000                 0.0000                 0.0000
 Atom AN      X      Y      Z        X      Y      Z        X      Y      Z
   1   6     0.08  -0.06   0.04    -0.04  -0.04  -0.01    -0.01  -0.11   0.07
   2   6     0.06  -0.05   0.01    -0.02  -0.00  -0.01    -0.09   0.01   0.02
   3   7     0.07   0.02   0.01     0.07   0.10  -0.05     0.01   0.18  -0.09
   4   6    -0.05  -0.10   0.01    -0.03  -0.01  -0.05    -0.08   0.03  -0.10
   5   6    -0.33  -0.31   0.02    -0.15  -0.12   0.02    -0.23  -0.14   0.03
   6   8     0.10   0.17  -0.04     0.05   0.06   0.02     0.10   0.07   0.09
   7   8     0.01   0.06   0.03     0.04  -0.01   0.01     0.09  -0.05  -0.01
   8   6     0.04   0.09   0.02     0.09  -0.01  -0.08     0.09  -0.04  -0.13
   9   6    -0.15   0.26   0.01     0.08  -0.24  -0.05     0.16  -0.40  -0.07
  10   8     0.05  -0.12  -0.08    -0.11   0.07   0.06    -0.17   0.12   0.12
  11   8    -0.01  -0.05   0.01     0.02   0.04   0.09     0.05   0.06   0.11
  12   7     0.07  -0.03  -0.01    -0.07  -0.02   0.10     0.13   0.06  -0.09
  13   6     0.05  -0.01  -0.03     0.02   0.09  -0.04     0.03  -0.03   0.03
  14   6     0.02   0.05  -0.08     0.02   0.32  -0.44    -0.02  -0.19   0.25
  15   8    -0.03   0.03   0.07    -0.06  -0.14   0.19    -0.00   0.10  -0.09
  16   8    -0.05  -0.01  -0.01     0.01  -0.06   0.03    -0.02   0.02  -0.03
  17   6    -0.09   0.02   0.01     0.05  -0.03   0.07    -0.03   0.03  -0.05
  18   6    -0.36   0.08   0.04     0.16  -0.00  -0.03    -0.12   0.01   0.02
  19   8     0.16  -0.02  -0.01    -0.07   0.04  -0.02     0.05  -0.03  -0.00
  20   8     0.03   0.00  -0.02    -0.02  -0.04  -0.02     0.01   0.01   0.01
  21   1     0.01   0.01   0.02     0.01  -0.04  -0.01    -0.03   0.00   0.03
  22   1     0.02  -0.03   0.03    -0.03   0.00  -0.03    -0.00  -0.05   0.05
  23   1     0.01  -0.00  -0.01    -0.02  -0.02   0.02    -0.05  -0.01   0.02
  24   1     0.01  -0.02  -0.00    -0.02   0.02   0.01    -0.07   0.02   0.02
  25   1    -0.04   0.18   0.08    -0.03   0.08  -0.00    -0.05   0.13   0.00
  26   1     0.21  -0.08  -0.08     0.07  -0.03  -0.03     0.10  -0.03  -0.06
  27   1     0.21   0.19   0.02     0.10   0.08  -0.02     0.13   0.09  -0.06
  28   1    -0.02  -0.08  -0.12     0.05   0.07   0.06     0.05   0.10   0.11
  29   1     0.13  -0.02   0.11    -0.04   0.04  -0.14    -0.08   0.06  -0.22
  30   1     0.07  -0.17  -0.00    -0.02   0.16   0.02    -0.05   0.29   0.02
  31   1     0.05  -0.01   0.02     0.25  -0.05   0.14    -0.14   0.05  -0.06
  32   1    -0.03  -0.02   0.01    -0.24  -0.09   0.08     0.13   0.05  -0.04
  33   1    -0.02  -0.06   0.04    -0.01  -0.20   0.27     0.00   0.11  -0.16
  34   1     0.08   0.15   0.00    -0.03  -0.06   0.02     0.01   0.04   0.01
  35   1     0.05  -0.15  -0.03    -0.01   0.06   0.05    -0.01  -0.03  -0.06
  36   1     0.24  -0.04  -0.03    -0.10  -0.00   0.03     0.08  -0.01  -0.02
                     31                     32                     33
                        a                      a                      a 
 Frequencies --   554.9122               632.0423               639.6540
 Red. masses --    10.2137                12.5973                12.3317
 Frc consts  --     0.0000                 0.0000                 0.0000
 IR Inten    --     5.8399                48.9793                12.4003
 Raman Activ --     0.0000                 0.0000                 0.0000
 Depolar     --     0.0000                 0.0000                 0.0000
 Atom AN      X      Y      Z        X      Y      Z        X      Y      Z
   1   6    -0.17   0.14  -0.05     0.05  -0.06   0.02    -0.09   0.06  -0.00
   2   6     0.11  -0.07   0.00     0.07  -0.08   0.02     0.07  -0.02   0.00
   3   7     0.22  -0.03  -0.01     0.07  -0.02  -0.04     0.10  -0.03  -0.05
   4   6     0.04  -0.11   0.01    -0.16   0.18  -0.02    -0.07   0.10  -0.03
   5   6    -0.19  -0.22   0.02    -0.16   0.14  -0.05    -0.10   0.06  -0.02
   6   8     0.01   0.17  -0.11     0.14  -0.14   0.29     0.07  -0.06   0.15
   7   8    -0.03   0.08   0.07     0.04  -0.06  -0.30     0.03  -0.02  -0.16
   8   6     0.14   0.09  -0.04     0.12   0.03   0.17     0.14   0.05   0.15
   9   6    -0.10   0.08  -0.02    -0.02  -0.04   0.15    -0.03  -0.04   0.13
  10   8    -0.04  -0.06  -0.05     0.16   0.09  -0.21     0.14   0.08  -0.20
  11   8    -0.01  -0.02   0.08    -0.23  -0.11   0.01    -0.21  -0.10   0.02
  12   7    -0.29   0.03   0.05     0.05   0.01   0.02    -0.16  -0.05  -0.05
  13   6    -0.16   0.02   0.06    -0.16   0.07   0.03     0.12  -0.10  -0.06
  14   6    -0.06  -0.09   0.18    -0.13   0.09   0.02     0.14  -0.08  -0.01
  15   8     0.12  -0.12  -0.18     0.06  -0.20  -0.13    -0.04   0.19   0.13
  16   8     0.15   0.06   0.04     0.12   0.14   0.12    -0.12  -0.13  -0.11
  17   6     0.05  -0.01  -0.04    -0.02  -0.15  -0.02     0.02   0.26   0.02
  18   6     0.36  -0.09  -0.04    -0.05  -0.07  -0.09     0.11   0.12   0.14
  19   8    -0.15   0.01   0.03     0.04   0.04   0.20    -0.08  -0.06  -0.34
  20   8    -0.02   0.02   0.03    -0.01   0.11  -0.15     0.01  -0.18   0.28
  21   1    -0.04   0.03  -0.02     0.01  -0.03  -0.00    -0.04   0.09   0.03
  22   1    -0.07   0.04  -0.02    -0.01  -0.01  -0.01    -0.02  -0.02   0.06
  23   1     0.04  -0.04   0.02     0.02  -0.05   0.04     0.04  -0.05   0.05
  24   1     0.06   0.01   0.01     0.00   0.03   0.03     0.03   0.05   0.03
  25   1    -0.03   0.09   0.02    -0.05   0.07  -0.01    -0.03   0.05  -0.01
  26   1     0.13  -0.07  -0.02    -0.05   0.06  -0.02    -0.01   0.03  -0.02
  27   1     0.12   0.13   0.06     0.03   0.01  -0.21     0.01   0.01  -0.11
  28   1     0.05   0.01  -0.08     0.04   0.02   0.05     0.05   0.02   0.04
  29   1     0.06   0.01   0.01     0.02   0.01   0.06     0.02   0.01   0.05
  30   1     0.06  -0.05   0.01    -0.15  -0.03   0.02    -0.13  -0.02   0.02
  31   1    -0.12   0.01  -0.05    -0.04   0.03   0.03     0.04  -0.05  -0.05
  32   1     0.05   0.04  -0.02    -0.06   0.02   0.02     0.07  -0.02  -0.03
  33   1     0.06   0.14  -0.05     0.05   0.10   0.10    -0.05  -0.09  -0.11
  34   1    -0.06  -0.12  -0.08    -0.01  -0.04  -0.00     0.00   0.07  -0.02
  35   1    -0.01   0.11   0.07    -0.02  -0.04  -0.02     0.03   0.08   0.04
  36   1    -0.24   0.05   0.03     0.04   0.05  -0.11    -0.07  -0.08   0.18
                     34                     35                     36
                        a                      a                      a 
 Frequencies --   653.4867               658.8995               739.4009
 Red. masses --    12.4940                12.2884                 4.3543
 Frc consts  --     0.0000                 0.0000                 0.0000
 IR Inten    --    19.3672                67.9676               224.8323
 Raman Activ --     0.0000                 0.0000                 0.0000
 Depolar     --     0.0000                 0.0000                 0.0000
 Atom AN      X      Y      Z        X      Y      Z        X      Y      Z
   1   6    -0.09   0.01   0.00     0.12  -0.14   0.03    -0.06   0.04  -0.02
   2   6    -0.10   0.06  -0.04    -0.09   0.06  -0.02    -0.01   0.00  -0.01
   3   7     0.00   0.09  -0.15    -0.08   0.10  -0.11     0.01  -0.02   0.00
   4   6     0.12  -0.10  -0.20     0.09  -0.09  -0.16     0.02   0.02   0.01
   5   6     0.12  -0.09   0.07     0.11  -0.08   0.06     0.04   0.03   0.00
   6   8    -0.12   0.12  -0.19    -0.10   0.10  -0.17    -0.02  -0.02  -0.00
   7   8     0.03  -0.00   0.26     0.02  -0.00   0.23    -0.06  -0.04  -0.00
   8   6     0.11   0.05   0.16    -0.00   0.01   0.09     0.00   0.01  -0.00
   9   6     0.01  -0.10   0.20     0.02  -0.06   0.12    -0.00   0.02   0.00
  10   8     0.19   0.12  -0.20     0.12   0.07  -0.10     0.00  -0.01   0.00
  11   8    -0.26  -0.14   0.04    -0.14  -0.09   0.01     0.01  -0.02   0.00
  12   7    -0.02   0.09   0.10     0.14  -0.09  -0.14    -0.03   0.01   0.00
  13   6     0.17   0.08   0.08    -0.23  -0.07  -0.09    -0.00   0.00  -0.01
  14   6     0.08  -0.10  -0.02    -0.15   0.15   0.03     0.02  -0.00  -0.01
  15   8    -0.08   0.15   0.10     0.10  -0.24  -0.16     0.00   0.02   0.02
  16   8    -0.05  -0.16  -0.12     0.09   0.25   0.18    -0.01  -0.03  -0.00
  17   6    -0.03  -0.15  -0.00     0.05   0.14  -0.00     0.15  -0.02  -0.00
  18   6    -0.01  -0.11  -0.11    -0.03   0.12   0.12     0.26  -0.05  -0.02
  19   8     0.03   0.03   0.22    -0.02  -0.02  -0.23    -0.15   0.02   0.00
  20   8    -0.01   0.11  -0.19    -0.00  -0.11   0.20    -0.33   0.05   0.06
  21   1     0.00  -0.00  -0.00     0.02  -0.01   0.02    -0.00   0.00  -0.01
  22   1    -0.05   0.01  -0.01     0.06  -0.05   0.02    -0.02   0.01  -0.01
  23   1    -0.03  -0.01   0.01    -0.05   0.02  -0.01     0.00  -0.01   0.01
  24   1    -0.04   0.05   0.00    -0.06   0.00  -0.01     0.01   0.01   0.00
  25   1     0.04  -0.00  -0.04     0.04  -0.01  -0.02     0.01  -0.03  -0.01
  26   1     0.05  -0.02  -0.07     0.04  -0.02  -0.06    -0.03   0.01   0.01
  27   1    -0.03  -0.04   0.14    -0.03  -0.04   0.13     0.13   0.11  -0.00
  28   1     0.01  -0.02   0.06    -0.02  -0.04   0.04     0.00  -0.00  -0.01
  29   1     0.06   0.01   0.04     0.04   0.00   0.03     0.00  -0.00   0.01
  30   1    -0.22   0.04   0.04    -0.15   0.05   0.02    -0.02   0.06   0.00
  31   1     0.05   0.03   0.04    -0.07  -0.02  -0.03     0.01  -0.00  -0.00
  32   1     0.03   0.01   0.03    -0.06   0.00  -0.03    -0.00  -0.01  -0.00
  33   1    -0.02  -0.05  -0.10     0.04   0.08   0.17    -0.00   0.02  -0.05
  34   1     0.00  -0.03  -0.03    -0.00   0.02   0.08    -0.05  -0.13   0.00
  35   1     0.01  -0.06   0.01    -0.03   0.07  -0.04    -0.02   0.13   0.04
  36   1    -0.02   0.06  -0.12     0.07  -0.07   0.12     0.80  -0.14  -0.10
                     37                     38                     39
                        a                      a                      a 
 Frequencies --   744.0188               746.1060               751.2606
 Red. masses --     4.1703                 4.2079                 4.1407
 Frc consts  --     0.0000                 0.0000                 0.0000
 IR Inten    --   228.5841                94.6890               156.8980
 Raman Activ --     0.0000                 0.0000                 0.0000
 Depolar     --     0.0000                 0.0000                 0.0000
 Atom AN      X      Y      Z        X      Y      Z        X      Y      Z
   1   6    -0.02  -0.03  -0.00     0.01  -0.00  -0.00     0.03  -0.02  -0.00
   2   6    -0.03   0.03  -0.03     0.02  -0.02   0.00    -0.02   0.01  -0.02
   3   7     0.00   0.03  -0.01     0.01  -0.01   0.01    -0.01   0.01  -0.01
   4   6    -0.04  -0.03  -0.01    -0.09  -0.07   0.04     0.05   0.04  -0.02
   5   6    -0.06  -0.06   0.00    -0.16  -0.12  -0.01     0.09   0.06   0.00
   6   8     0.04   0.04  -0.01     0.09   0.07   0.02    -0.05  -0.03  -0.02
   7   8     0.10   0.08   0.01     0.20   0.18  -0.03    -0.11  -0.10   0.03
   8   6     0.11  -0.10   0.01     0.01   0.06  -0.00    -0.01  -0.04   0.00
   9   6     0.09  -0.22   0.01    -0.04   0.09  -0.03     0.03  -0.06   0.02
  10   8    -0.04   0.14  -0.02    -0.02  -0.07   0.00     0.01   0.04  -0.00
  11   8    -0.17   0.26   0.02     0.08  -0.09  -0.01    -0.05   0.06  -0.00
  12   7     0.01   0.00  -0.00    -0.01  -0.01   0.00     0.01  -0.02   0.00
  13   6     0.00   0.00   0.01    -0.00   0.03  -0.06    -0.00   0.05  -0.11
  14   6    -0.01  -0.00   0.01     0.00   0.09  -0.11    -0.00   0.14  -0.17
  15   8    -0.00  -0.00  -0.01    -0.00  -0.06   0.06    -0.01  -0.10   0.08
  16   8     0.00   0.01  -0.00    -0.01  -0.10   0.15    -0.01  -0.15   0.25
  17   6     0.02  -0.01  -0.00     0.02  -0.02   0.02    -0.01  -0.02   0.03
  18   6     0.03  -0.00  -0.00     0.02   0.01   0.00    -0.04   0.03   0.02
  19   8    -0.02   0.00  -0.00    -0.01   0.01  -0.01     0.02   0.01  -0.03
  20   8    -0.05   0.01   0.01    -0.04   0.00   0.01     0.04  -0.02   0.01
  21   1     0.00   0.02   0.01    -0.00  -0.00  -0.00     0.02   0.01   0.00
  22   1    -0.02  -0.02   0.02    -0.00   0.00  -0.00     0.00  -0.01   0.01
  23   1    -0.02  -0.02   0.02     0.01  -0.00   0.00    -0.01  -0.01   0.01
  24   1    -0.01   0.04   0.01     0.01  -0.00  -0.00    -0.00   0.01  -0.00
  25   1    -0.02   0.05   0.02    -0.04   0.09   0.05     0.03  -0.05  -0.03
  26   1     0.05  -0.02  -0.02     0.09  -0.05  -0.03    -0.05   0.03   0.02
  27   1    -0.24  -0.21   0.02    -0.51  -0.44   0.01     0.29   0.25   0.00
  28   1     0.05   0.06   0.11    -0.00  -0.01  -0.04    -0.00   0.01   0.03
  29   1    -0.06   0.02  -0.11     0.03  -0.00   0.04    -0.02  -0.00  -0.02
  30   1     0.32  -0.70  -0.01    -0.09   0.26   0.00     0.06  -0.17  -0.00
  31   1    -0.00   0.00   0.00     0.07  -0.02   0.02     0.11  -0.02   0.04
  32   1     0.00   0.00   0.00    -0.07  -0.02   0.01    -0.11  -0.03   0.01
  33   1     0.00  -0.01   0.02     0.02   0.27  -0.34     0.04   0.45  -0.57
  34   1    -0.01  -0.02   0.01    -0.00  -0.02   0.01     0.01   0.01   0.02
  35   1    -0.01   0.02   0.00    -0.00   0.01   0.01     0.00  -0.02   0.00
  36   1     0.13  -0.02  -0.01     0.10  -0.02  -0.00    -0.10   0.01   0.03
                     40                     41                     42
                        a                      a                      a 
 Frequencies --   778.8223               833.4133               841.7936
 Red. masses --     3.5446                10.4914                10.2072
 Frc consts  --     0.0000                 0.0000                 0.0000
 IR Inten    --    13.1652                13.3594                33.3087
 Raman Activ --     0.0000                 0.0000                 0.0000
 Depolar     --     0.0000                 0.0000                 0.0000
 Atom AN      X      Y      Z        X      Y      Z        X      Y      Z
   1   6    -0.00   0.05   0.22    -0.24   0.19   0.01     0.03  -0.12   0.12
   2   6     0.07   0.02   0.27    -0.11   0.01  -0.01    -0.16   0.20  -0.02
   3   7     0.03  -0.00  -0.01    -0.01  -0.08  -0.04    -0.10  -0.19  -0.14
   4   6     0.05  -0.04  -0.18    -0.06   0.01   0.09    -0.22   0.02   0.25
   5   6    -0.06   0.04   0.02     0.05   0.00  -0.02     0.18   0.03  -0.05
   6   8    -0.03   0.04   0.07     0.01  -0.03  -0.04     0.03  -0.10  -0.11
   7   8     0.01  -0.00  -0.03    -0.01  -0.00   0.01    -0.03  -0.03   0.06
   8   6    -0.00  -0.01  -0.03     0.20   0.07   0.05     0.47   0.12   0.19
   9   6     0.03  -0.02   0.03    -0.03  -0.01  -0.05    -0.10   0.01  -0.14
  10   8     0.03   0.03   0.00    -0.06  -0.03  -0.05    -0.17  -0.08  -0.13
  11   8    -0.05   0.00   0.02     0.01   0.00   0.01     0.06   0.01   0.01
  12   7    -0.08   0.03  -0.00     0.19   0.15  -0.09    -0.03  -0.05   0.02
  13   6    -0.06  -0.03  -0.04    -0.24  -0.14  -0.24     0.10   0.04   0.08
  14   6     0.05   0.00  -0.01     0.11  -0.04   0.08    -0.04   0.02  -0.03
  15   8     0.04   0.03   0.03     0.13   0.07   0.03    -0.06  -0.03  -0.02
  16   8    -0.01  -0.04  -0.02    -0.03  -0.01  -0.04     0.01   0.01   0.02
  17   6     0.00   0.06  -0.07     0.14  -0.43   0.28    -0.01   0.18  -0.12
  18   6    -0.01  -0.02   0.01    -0.10   0.18   0.03    -0.01  -0.06  -0.00
  19   8    -0.00  -0.03   0.00     0.07   0.19  -0.08    -0.01  -0.08   0.03
  20   8    -0.00   0.00   0.02     0.03  -0.05   0.02     0.00   0.02  -0.01
  21   1    -0.14  -0.40  -0.09    -0.06  -0.05  -0.04    -0.00  -0.12  -0.00
  22   1     0.13   0.26  -0.30    -0.13   0.11  -0.08     0.09   0.03  -0.05
  23   1     0.16   0.31  -0.28     0.00  -0.01  -0.00     0.03   0.06  -0.03
  24   1    -0.12  -0.41  -0.12    -0.05   0.01   0.00    -0.14   0.03  -0.01
  25   1    -0.01   0.01  -0.08     0.00   0.02   0.06     0.01   0.07   0.21
  26   1    -0.00  -0.01  -0.03    -0.00   0.02  -0.02     0.00   0.07  -0.10
  27   1    -0.01  -0.01  -0.06     0.01   0.01   0.03     0.04   0.02   0.09
  28   1    -0.00  -0.01   0.00     0.06   0.03   0.01     0.16   0.10   0.05
  29   1     0.00  -0.00  -0.01     0.02   0.01   0.03     0.01   0.02   0.09
  30   1    -0.00  -0.06   0.01     0.04   0.03  -0.01     0.12   0.08  -0.03
  31   1    -0.00  -0.01  -0.01    -0.04   0.03   0.07     0.01  -0.01  -0.02
  32   1    -0.00  -0.03  -0.02    -0.09  -0.15  -0.07     0.04   0.05   0.02
  33   1    -0.01  -0.01  -0.05    -0.03  -0.09  -0.04     0.01   0.04   0.02
  34   1    -0.01   0.00  -0.02     0.02  -0.13   0.16    -0.01   0.03  -0.02
  35   1    -0.01   0.03  -0.02    -0.04  -0.08  -0.02    -0.01   0.06  -0.03
  36   1     0.02   0.00  -0.01    -0.02  -0.05   0.12    -0.01   0.02  -0.05
                     43                     44                     45
                        a                      a                      a 
 Frequencies --   876.0711               878.3105               896.0532
 Red. masses --    10.5496                10.3829                10.1021
 Frc consts  --     0.0000                 0.0000                 0.0000
 IR Inten    --     8.7190                19.7331                47.9678
 Raman Activ --     0.0000                 0.0000                 0.0000
 Depolar     --     0.0000                 0.0000                 0.0000
 Atom AN      X      Y      Z        X      Y      Z        X      Y      Z
   1   6    -0.02  -0.00  -0.06     0.03   0.04  -0.04     0.27  -0.12   0.02
   2   6    -0.01   0.03   0.03    -0.03  -0.07  -0.03     0.15  -0.15   0.03
   3   7    -0.04   0.02   0.09    -0.03   0.04   0.05    -0.04   0.09  -0.01
   4   6     0.21  -0.36  -0.22     0.10  -0.19  -0.13    -0.16   0.16  -0.07
   5   6    -0.02   0.22   0.07    -0.01   0.12   0.03     0.06  -0.05  -0.03
   6   8    -0.14   0.11   0.22    -0.08   0.06   0.11     0.05  -0.06  -0.11
   7   8    -0.05   0.01  -0.14    -0.02   0.00  -0.06     0.03  -0.04   0.11
   8   6     0.08   0.07   0.29     0.02   0.06   0.22    -0.11   0.08   0.26
   9   6    -0.03  -0.08  -0.12    -0.01  -0.09  -0.08     0.02  -0.14  -0.09
  10   8    -0.17  -0.05  -0.09    -0.12  -0.03  -0.06    -0.13  -0.01  -0.06
  11   8     0.10   0.06  -0.07     0.08   0.05  -0.05     0.08   0.07  -0.07
  12   7    -0.03  -0.02  -0.04     0.09   0.03   0.05    -0.10   0.04   0.04
  13   6     0.27   0.05  -0.00    -0.41  -0.10   0.01    -0.25   0.16   0.04
  14   6    -0.12  -0.04   0.05     0.17   0.08  -0.09     0.10  -0.02   0.04
  15   8    -0.13  -0.05  -0.08     0.20   0.07   0.12     0.14   0.08   0.06
  16   8     0.00   0.08   0.04    -0.00  -0.12  -0.06     0.02  -0.11  -0.09
  17   6    -0.07  -0.20  -0.02     0.14   0.33   0.09    -0.25  -0.18  -0.17
  18   6     0.06   0.08   0.01    -0.09  -0.14  -0.01     0.17   0.08  -0.00
  19   8     0.00   0.12  -0.06    -0.01  -0.21   0.10    -0.02   0.16  -0.07
  20   8    -0.00  -0.01   0.08    -0.00   0.02  -0.16    -0.02  -0.00   0.13
  21   1     0.00   0.06   0.01     0.06   0.04   0.00     0.05  -0.02   0.01
  22   1     0.02  -0.04   0.04    -0.07  -0.01   0.02     0.07  -0.04   0.02
  23   1    -0.04   0.04  -0.03    -0.07  -0.05   0.04     0.01  -0.03   0.01
  24   1     0.06  -0.05  -0.03     0.05   0.02   0.01     0.03  -0.04   0.01
  25   1     0.12  -0.05   0.06     0.07  -0.03   0.04    -0.05   0.07  -0.02
  26   1     0.16  -0.12  -0.09     0.09  -0.06  -0.06    -0.06   0.08  -0.06
  27   1    -0.01   0.02  -0.18    -0.01   0.01  -0.09     0.01  -0.01   0.08
  28   1    -0.01  -0.03   0.09    -0.03  -0.05   0.07    -0.10  -0.11   0.09
  29   1     0.04   0.00   0.12     0.05   0.00   0.09     0.08  -0.01   0.12
  30   1     0.11   0.05  -0.04     0.08   0.04  -0.03     0.08   0.03  -0.03
  31   1     0.11   0.00   0.03    -0.19  -0.00  -0.06    -0.07   0.08   0.08
  32   1     0.05  -0.07  -0.01    -0.08   0.12   0.01    -0.11   0.03   0.03
  33   1     0.02   0.08   0.07    -0.03  -0.12  -0.10    -0.01  -0.09  -0.06
  34   1    -0.00  -0.03  -0.05     0.01   0.06   0.11    -0.01   0.01  -0.22
  35   1    -0.00  -0.09  -0.01     0.01   0.15   0.05     0.02  -0.18  -0.03
  36   1     0.02  -0.03   0.08    -0.02   0.05  -0.14     0.03  -0.03   0.09
                     46                     47                     48
                        a                      a                      a 
 Frequencies --   902.4804               934.5117               941.8142
 Red. masses --     9.7534                 8.7428                 8.6426
 Frc consts  --     0.0000                 0.0000                 0.0000
 IR Inten    --    23.0833                62.0278                14.5971
 Raman Activ --     0.0000                 0.0000                 0.0000
 Depolar     --     0.0000                 0.0000                 0.0000
 Atom AN      X      Y      Z        X      Y      Z        X      Y      Z
   1   6    -0.15   0.20  -0.05    -0.10  -0.06   0.00     0.12  -0.15   0.02
   2   6     0.16  -0.18   0.06    -0.08   0.16  -0.03    -0.02   0.07  -0.00
   3   7     0.01   0.08   0.02     0.10  -0.04   0.12     0.01   0.03   0.07
   4   6    -0.13   0.27  -0.12     0.19   0.25  -0.23     0.02   0.06  -0.12
   5   6     0.01  -0.12  -0.03    -0.18  -0.16  -0.01    -0.03  -0.02  -0.01
   6   8     0.08  -0.06  -0.14     0.05   0.04  -0.02     0.01   0.01  -0.01
   7   8     0.05  -0.03   0.13     0.06   0.00   0.06     0.02  -0.01   0.03
   8   6    -0.13   0.11   0.28     0.09  -0.32   0.24     0.09  -0.21   0.07
   9   6     0.03  -0.17  -0.09    -0.14   0.20  -0.03    -0.08   0.16  -0.00
  10   8    -0.14  -0.01  -0.06    -0.08  -0.10  -0.07    -0.01  -0.05  -0.02
  11   8     0.09   0.08  -0.07     0.11   0.00  -0.07     0.03  -0.02  -0.02
  12   7     0.04  -0.02  -0.03     0.00  -0.06  -0.02    -0.04   0.14   0.01
  13   6     0.25  -0.15  -0.09    -0.03   0.04   0.18    -0.02   0.03  -0.41
  14   6    -0.10  -0.01   0.00     0.02   0.07  -0.07    -0.01  -0.17   0.20
  15   8    -0.14  -0.07  -0.07     0.01   0.00   0.03     0.02   0.03  -0.06
  16   8    -0.02   0.12   0.08     0.01  -0.05  -0.02    -0.01   0.08  -0.00
  17   6     0.13   0.11   0.17     0.12  -0.09  -0.13    -0.18   0.19   0.28
  18   6    -0.07  -0.06  -0.00    -0.12   0.05   0.00     0.21  -0.09  -0.01
  19   8     0.00  -0.10   0.05     0.04   0.04  -0.03    -0.07  -0.09   0.06
  20   8    -0.00   0.00  -0.10     0.03  -0.01   0.06    -0.06   0.01  -0.13
  21   1    -0.08   0.03  -0.02    -0.01  -0.00   0.01     0.02  -0.00   0.02
  22   1    -0.06   0.06  -0.02    -0.02  -0.02   0.01     0.03  -0.05   0.03
  23   1     0.08  -0.02  -0.01    -0.03   0.03   0.00    -0.05   0.02  -0.00
  24   1     0.08  -0.07   0.00    -0.01   0.05  -0.01    -0.02   0.00  -0.01
  25   1    -0.09   0.06  -0.12    -0.02  -0.09  -0.27    -0.00  -0.01  -0.06
  26   1    -0.11   0.10  -0.01    -0.13   0.04   0.14    -0.02   0.01   0.01
  27   1     0.01  -0.01   0.10    -0.00  -0.01   0.00    -0.00  -0.00  -0.00
  28   1    -0.13  -0.14   0.09     0.12   0.15   0.17     0.10   0.12   0.09
  29   1     0.11  -0.01   0.15    -0.25  -0.05   0.06    -0.16  -0.02  -0.03
  30   1     0.08   0.03  -0.03     0.05   0.05  -0.02     0.01   0.01  -0.01
  31   1     0.11  -0.09  -0.05    -0.07  -0.00  -0.05     0.16   0.07   0.16
  32   1     0.10  -0.08  -0.04     0.04   0.11   0.04    -0.18  -0.25  -0.07
  33   1     0.01   0.08   0.06     0.00  -0.01  -0.01    -0.01  -0.01   0.01
  34   1     0.02   0.02   0.12    -0.04  -0.11   0.03     0.08   0.22  -0.02
  35   1     0.01   0.10   0.07    -0.06   0.06  -0.08     0.10  -0.09   0.16
  36   1    -0.01   0.02  -0.07    -0.00  -0.01   0.03     0.00   0.01  -0.07
                     49                     50                     51
                        a                      a                      a 
 Frequencies --   951.9725               960.2169              1006.8309
 Red. masses --     8.6527                 9.1741                10.3513
 Frc consts  --     0.0000                 0.0000                 0.0000
 IR Inten    --    16.9546                15.6545                26.3673
 Raman Activ --     0.0000                 0.0000                 0.0000
 Depolar     --     0.0000                 0.0000                 0.0000
 Atom AN      X      Y      Z        X      Y      Z        X      Y      Z
   1   6    -0.13   0.08  -0.08     0.07   0.07   0.05     0.32   0.37  -0.22
   2   6     0.03  -0.04   0.10    -0.28   0.06  -0.05    -0.37  -0.35   0.24
   3   7    -0.04   0.05   0.09     0.02  -0.22  -0.18    -0.14  -0.09   0.17
   4   6    -0.12  -0.01  -0.11     0.38   0.12   0.21    -0.02   0.08  -0.16
   5   6     0.07   0.06  -0.02    -0.23  -0.21   0.04    -0.05  -0.03  -0.02
   6   8    -0.01  -0.02  -0.03     0.03   0.08   0.06     0.02  -0.00  -0.02
   7   8     0.01  -0.03   0.05     0.00   0.08  -0.11     0.02  -0.01   0.05
   8   6     0.10  -0.10  -0.04    -0.03   0.20   0.05     0.25   0.07  -0.13
   9   6    -0.04   0.11   0.01     0.07  -0.18  -0.03     0.01   0.04  -0.02
  10   8     0.02  -0.02  -0.00    -0.04   0.03  -0.02     0.03   0.00   0.00
  11   8    -0.01  -0.02   0.01    -0.02   0.03   0.01    -0.06  -0.04   0.05
  12   7     0.27   0.10  -0.06     0.11   0.05   0.01    -0.04  -0.13  -0.02
  13   6     0.01  -0.33   0.19     0.01  -0.12  -0.02     0.02   0.11   0.03
  14   6     0.02   0.16  -0.25     0.01   0.02  -0.06    -0.01  -0.02   0.04
  15   8    -0.02  -0.06   0.05    -0.01  -0.02   0.00     0.00   0.01  -0.00
  16   8    -0.02   0.03   0.09    -0.01   0.03   0.04     0.00  -0.01  -0.02
  17   6    -0.30  -0.02   0.15    -0.19   0.04   0.03     0.04  -0.01   0.00
  18   6     0.28  -0.03  -0.02     0.17  -0.03  -0.01    -0.04   0.00   0.01
  19   8    -0.06   0.05   0.00    -0.04   0.01   0.01     0.01  -0.00  -0.00
  20   8    -0.06   0.01  -0.04    -0.03   0.01  -0.02     0.01  -0.00   0.00
  21   1    -0.11   0.07   0.00     0.03  -0.04  -0.01     0.05   0.19  -0.02
  22   1    -0.02  -0.02   0.03     0.06   0.06  -0.04     0.16   0.04   0.03
  23   1    -0.03   0.05  -0.03     0.02  -0.02   0.01    -0.20  -0.03   0.00
  24   1     0.02  -0.08  -0.01    -0.14   0.06   0.01    -0.01  -0.19   0.00
  25   1    -0.03   0.07   0.02     0.07  -0.22  -0.13     0.01  -0.02  -0.04
  26   1     0.03   0.00  -0.08    -0.15   0.03   0.23    -0.06   0.05  -0.03
  27   1     0.01   0.00   0.01    -0.02  -0.00  -0.02     0.00  -0.00  -0.00
  28   1     0.07   0.08   0.02    -0.08  -0.11  -0.04     0.08   0.04  -0.02
  29   1    -0.08   0.00  -0.06     0.13  -0.01   0.14     0.02   0.02  -0.05
  30   1    -0.00  -0.00   0.00     0.03   0.00  -0.01     0.01   0.00   0.00
  31   1    -0.20  -0.07  -0.18    -0.04  -0.01  -0.03     0.04   0.00   0.02
  32   1     0.19   0.15  -0.00     0.04   0.01  -0.01    -0.04   0.02   0.03
  33   1    -0.00   0.01  -0.01    -0.00   0.00  -0.00     0.00   0.01   0.00
  34   1     0.07   0.18  -0.13     0.04   0.13  -0.07    -0.00  -0.02   0.01
  35   1     0.08  -0.26   0.03     0.04  -0.14   0.00     0.01   0.04   0.03
  36   1     0.01  -0.01   0.02     0.01  -0.00  -0.00    -0.00  -0.00   0.00
                     52                     53                     54
                        a                      a                      a 
 Frequencies --  1017.2528              1056.3090              1072.8509
 Red. masses --     8.8869                 9.5933                 9.0296
 Frc consts  --     0.0000                 0.0000                 0.0000
 IR Inten    --    27.4313               112.3897                29.2752
 Raman Activ --     0.0000                 0.0000                 0.0000
 Depolar     --     0.0000                 0.0000                 0.0000
 Atom AN      X      Y      Z        X      Y      Z        X      Y      Z
   1   6     0.15   0.29   0.24     0.14   0.10  -0.04    -0.20   0.09   0.01
   2   6    -0.17  -0.25  -0.18    -0.23  -0.08  -0.02    -0.20   0.16  -0.03
   3   7     0.12   0.17  -0.01     0.35   0.11  -0.22     0.28  -0.20   0.21
   4   6    -0.05  -0.06   0.01    -0.05  -0.09   0.16    -0.13   0.01  -0.16
   5   6     0.05   0.06  -0.01     0.14   0.04   0.06     0.08   0.08  -0.01
   6   8    -0.02  -0.00   0.01    -0.03  -0.01   0.01    -0.00  -0.03  -0.03
   7   8    -0.01  -0.01   0.01    -0.04   0.01  -0.10    -0.00  -0.02   0.03
   8   6    -0.05  -0.17   0.08    -0.19  -0.18   0.15    -0.11   0.06  -0.02
   9   6    -0.06   0.10   0.02    -0.07   0.03   0.05     0.00  -0.15   0.07
  10   8    -0.01  -0.03  -0.01    -0.03  -0.03  -0.02    -0.01   0.03   0.00
  11   8     0.05   0.00  -0.03     0.09   0.03  -0.06     0.07   0.06  -0.04
  12   7     0.07   0.06   0.28    -0.14  -0.05  -0.28     0.26  -0.29   0.04
  13   6     0.06  -0.22  -0.14     0.01   0.12   0.14    -0.04   0.17  -0.03
  14   6     0.00  -0.04  -0.02    -0.03   0.09   0.01     0.01  -0.11   0.09
  15   8    -0.05  -0.02  -0.02     0.01   0.00   0.02     0.02   0.03  -0.01
  16   8    -0.01   0.08   0.06     0.00  -0.09  -0.06     0.00   0.02  -0.01
  17   6    -0.07   0.04  -0.29     0.05  -0.04   0.25    -0.11   0.07  -0.11
  18   6    -0.01  -0.00  -0.04     0.04   0.01   0.07     0.10  -0.05  -0.10
  19   8     0.00   0.03  -0.02    -0.01  -0.02   0.01    -0.02   0.02  -0.00
  20   8     0.01  -0.00   0.10    -0.02   0.01  -0.11    -0.01  -0.01   0.10
  21   1     0.19  -0.18  -0.03    -0.18   0.03  -0.01    -0.03  -0.01  -0.01
  22   1    -0.17   0.21  -0.14     0.28   0.03  -0.01    -0.03   0.04  -0.02
  23   1    -0.01  -0.20   0.10     0.09  -0.05  -0.00    -0.03   0.01   0.00
  24   1    -0.11   0.14   0.06    -0.26   0.03   0.04    -0.00   0.04  -0.01
  25   1    -0.00   0.03   0.04    -0.12   0.14  -0.03    -0.15   0.17  -0.12
  26   1     0.08  -0.06   0.00     0.13  -0.09   0.03     0.10  -0.08   0.00
  27   1    -0.00  -0.00  -0.01     0.00   0.00   0.03     0.00  -0.00  -0.00
  28   1     0.00   0.02   0.10    -0.05  -0.03   0.10     0.04   0.04  -0.25
  29   1    -0.06   0.01  -0.10    -0.04  -0.00  -0.05     0.02  -0.04   0.15
  30   1    -0.01  -0.00  -0.00    -0.02  -0.01   0.00    -0.04  -0.02   0.01
  31   1     0.05  -0.07  -0.04    -0.04   0.03  -0.00     0.13  -0.05   0.02
  32   1     0.03  -0.05  -0.04     0.08   0.00  -0.01    -0.21   0.14   0.10
  33   1    -0.01   0.01   0.01     0.01   0.02   0.02    -0.00  -0.01  -0.01
  34   1    -0.03  -0.01  -0.09     0.04   0.03   0.07     0.05   0.15   0.14
  35   1    -0.02   0.01  -0.07     0.00  -0.04  -0.00    -0.00  -0.09  -0.09
  36   1     0.00   0.01  -0.01     0.00  -0.02   0.02     0.00   0.02  -0.04
                     55                     56                     57
                        a                      a                      a 
 Frequencies --  1079.3050              1107.9732              1119.5991
 Red. masses --     8.9452                 9.8350                10.2951
 Frc consts  --     0.0000                 0.0000                 0.0000
 IR Inten    --     2.3802               182.1338               365.4584
 Raman Activ --     0.0000                 0.0000                 0.0000
 Depolar     --     0.0000                 0.0000                 0.0000
 Atom AN      X      Y      Z        X      Y      Z        X      Y      Z
   1   6     0.22  -0.14   0.04    -0.01  -0.02  -0.17    -0.01   0.00  -0.02
   2   6    -0.19   0.16  -0.02    -0.05   0.06   0.17    -0.03   0.01  -0.01
   3   7     0.20  -0.21   0.24     0.09   0.00  -0.15     0.08   0.01  -0.03
   4   6    -0.12   0.03  -0.18     0.00  -0.03   0.09    -0.01  -0.00   0.04
   5   6     0.04   0.06  -0.03     0.17  -0.14   0.23    -0.03   0.15  -0.14
   6   8     0.00  -0.03  -0.02    -0.04   0.04   0.04     0.02  -0.04  -0.03
   7   8     0.01  -0.02   0.05    -0.06   0.05  -0.28     0.02  -0.03   0.15
   8   6    -0.07   0.08  -0.04    -0.03  -0.05   0.04    -0.05  -0.03   0.02
   9   6     0.02  -0.15   0.05    -0.04   0.02   0.04     0.31   0.15  -0.42
  10   8    -0.00   0.03   0.01    -0.02  -0.01  -0.02     0.09   0.03   0.10
  11   8     0.05   0.05  -0.03     0.04   0.01  -0.02    -0.39  -0.18   0.17
  12   7    -0.21   0.34   0.05     0.06   0.05   0.15     0.00  -0.01   0.02
  13   6     0.05  -0.23  -0.03     0.00  -0.06  -0.06    -0.01   0.01  -0.01
  14   6     0.01   0.07  -0.11     0.15  -0.29  -0.19     0.09  -0.18  -0.10
  15   8    -0.03  -0.03   0.01    -0.08  -0.01  -0.02    -0.05  -0.01  -0.01
  16   8    -0.01   0.02   0.04     0.02   0.27   0.20     0.02   0.15   0.11
  17   6     0.09  -0.05   0.05     0.02  -0.02  -0.05     0.02  -0.00  -0.01
  18   6    -0.09   0.04   0.10    -0.13  -0.03  -0.18    -0.00   0.03   0.13
  19   8     0.02  -0.02  -0.00     0.03   0.05  -0.01    -0.00  -0.03   0.00
  20   8     0.01   0.02  -0.09     0.03  -0.04   0.17    -0.00   0.03  -0.11
  21   1     0.09  -0.01   0.02    -0.06   0.12   0.01    -0.05   0.01   0.00
  22   1     0.04  -0.04   0.02     0.01  -0.08   0.07     0.05  -0.00   0.00
  23   1    -0.10   0.01   0.02    -0.06   0.11  -0.05     0.03  -0.01   0.00
  24   1     0.01   0.04  -0.01    -0.00  -0.11  -0.02    -0.02   0.01   0.00
  25   1    -0.10   0.10  -0.09    -0.11   0.11  -0.08    -0.08   0.06  -0.07
  26   1     0.06  -0.05  -0.01    -0.04   0.06  -0.06     0.15  -0.15   0.15
  27   1     0.00  -0.00  -0.01     0.01  -0.00   0.14    -0.00   0.01  -0.08
  28   1     0.05   0.05  -0.28    -0.02  -0.02   0.07    -0.06  -0.04   0.13
  29   1     0.01  -0.05   0.18    -0.01   0.01  -0.05    -0.10  -0.07   0.21
  30   1    -0.03  -0.02   0.01    -0.02  -0.01   0.00     0.21   0.10  -0.05
  31   1    -0.15   0.08   0.00    -0.07   0.09   0.07    -0.00   0.01   0.02
  32   1     0.19  -0.15  -0.10    -0.11   0.09   0.05    -0.08   0.09   0.05
  33   1    -0.00  -0.00  -0.00    -0.04  -0.12  -0.10    -0.02  -0.08  -0.06
  34   1    -0.06  -0.14  -0.17    -0.04  -0.08  -0.16    -0.03  -0.05  -0.06
  35   1    -0.00   0.09   0.07     0.05   0.13   0.20    -0.02   0.00  -0.03
  36   1    -0.00  -0.02   0.04    -0.01   0.03  -0.07    -0.00  -0.02   0.06
                     58                     59                     60
                        a                      a                      a 
 Frequencies --  1122.3360              1128.1307              1144.9576
 Red. masses --    10.3933                10.5466                 8.8115
 Frc consts  --     0.0000                 0.0000                 0.0000
 IR Inten    --   622.9964               128.4124               185.4703
 Raman Activ --     0.0000                 0.0000                 0.0000
 Depolar     --     0.0000                 0.0000                 0.0000
 Atom AN      X      Y      Z        X      Y      Z        X      Y      Z
   1   6     0.04  -0.01   0.01    -0.03   0.01  -0.03     0.04   0.02   0.21
   2   6    -0.01  -0.02  -0.02     0.03  -0.04  -0.02     0.05  -0.07  -0.21
   3   7     0.01   0.00  -0.04    -0.02   0.01  -0.05    -0.08   0.02   0.24
   4   6     0.01   0.00   0.03     0.03   0.00   0.02    -0.03   0.01  -0.15
   5   6    -0.14   0.16  -0.23    -0.20   0.15  -0.26     0.07  -0.14   0.17
   6   8     0.04  -0.05  -0.04     0.05  -0.05  -0.05    -0.03   0.05   0.04
   7   8     0.04  -0.04   0.26     0.05  -0.04   0.30    -0.02   0.02  -0.17
   8   6    -0.02  -0.01   0.01    -0.00  -0.00   0.01     0.04   0.04  -0.04
   9   6     0.01  -0.00  -0.01    -0.18  -0.09   0.24     0.04   0.01  -0.05
  10   8     0.00   0.00   0.00    -0.05  -0.02  -0.06     0.02   0.01   0.02
  11   8    -0.01  -0.00   0.00     0.23   0.11  -0.10    -0.05  -0.02   0.02
  12   7    -0.05   0.03  -0.11    -0.02  -0.04  -0.03    -0.21  -0.07  -0.24
  13   6     0.01   0.03   0.05    -0.01   0.03   0.01     0.01   0.12   0.12
  14   6     0.01   0.03  -0.07     0.15  -0.29  -0.16     0.14  -0.20  -0.23
  15   8    -0.01  -0.01   0.01    -0.08  -0.01  -0.02    -0.10  -0.03  -0.01
  16   8     0.00  -0.00   0.01     0.03   0.25   0.18     0.04   0.20   0.16
  17   6    -0.01  -0.02   0.10     0.02  -0.01   0.03     0.02  -0.00   0.12
  18   6    -0.10  -0.13  -0.52     0.01   0.06   0.20     0.09  -0.03  -0.05
  19   8     0.02   0.13  -0.01    -0.00  -0.05   0.00    -0.01   0.01   0.00
  20   8     0.03  -0.12   0.44    -0.01   0.04  -0.17    -0.01  -0.01   0.02
  21   1    -0.03  -0.01   0.00    -0.08   0.01  -0.00     0.05  -0.15  -0.01
  22   1     0.04   0.00  -0.00     0.10   0.00  -0.00     0.07   0.10  -0.08
  23   1     0.05  -0.02  -0.00     0.09  -0.02  -0.01     0.01  -0.12   0.07
  24   1    -0.05   0.02   0.01    -0.07   0.01   0.01     0.06   0.14   0.02
  25   1     0.05  -0.05   0.05     0.12  -0.12   0.11     0.06  -0.04   0.04
  26   1     0.07  -0.08   0.09     0.02  -0.03   0.04    -0.10   0.10  -0.11
  27   1    -0.01   0.01  -0.14    -0.01   0.01  -0.17     0.00  -0.01   0.10
  28   1     0.00   0.00  -0.01     0.03   0.02  -0.07     0.01   0.01  -0.04
  29   1    -0.00  -0.01   0.02     0.06   0.04  -0.12     0.01   0.00   0.00
  30   1     0.01   0.00  -0.00    -0.13  -0.06   0.03     0.03   0.02  -0.01
  31   1    -0.12   0.13   0.07    -0.01   0.03   0.03    -0.14   0.16   0.09
  32   1     0.11  -0.09  -0.05    -0.12   0.14   0.08     0.09  -0.03  -0.02
  33   1    -0.00  -0.00  -0.00    -0.04  -0.13  -0.10    -0.03  -0.12  -0.10
  34   1     0.05   0.08   0.11    -0.03  -0.06  -0.11     0.06   0.11   0.28
  35   1     0.08   0.08   0.23    -0.02   0.00  -0.03    -0.05  -0.11  -0.17
  36   1    -0.01   0.09  -0.22     0.00  -0.04   0.09     0.00   0.00  -0.02
                     61                     62                     63
                        a                      a                      a 
 Frequencies --  1179.8146              1184.5196              1184.7320
 Red. masses --     4.8911                 5.1827                 4.0005
 Frc consts  --     0.0000                 0.0000                 0.0000
 IR Inten    --    17.6326                16.6733                13.8466
 Raman Activ --     0.0000                 0.0000                 0.0000
 Depolar     --     0.0000                 0.0000                 0.0000
 Atom AN      X      Y      Z        X      Y      Z        X      Y      Z
   1   6    -0.02   0.02   0.13     0.09   0.04  -0.07     0.01   0.04  -0.04
   2   6     0.08  -0.13  -0.24     0.15  -0.12   0.12    -0.03  -0.00   0.06
   3   7    -0.24   0.11   0.14    -0.25   0.20  -0.23     0.27   0.23  -0.07
   4   6     0.02   0.04  -0.07     0.05   0.04   0.14    -0.03  -0.09   0.04
   5   6     0.07  -0.06   0.09     0.06   0.03   0.01    -0.11  -0.07  -0.03
   6   8    -0.04   0.04   0.04    -0.02   0.01   0.03     0.02   0.01  -0.00
   7   8    -0.01   0.00  -0.11    -0.01  -0.01  -0.04     0.01   0.01   0.02
   8   6     0.09   0.02  -0.08     0.09  -0.06  -0.08    -0.15  -0.14   0.05
   9   6     0.00  -0.06   0.02    -0.03  -0.13   0.10     0.09  -0.06  -0.08
  10   8    -0.00   0.01  -0.01    -0.05  -0.00  -0.04     0.02   0.03   0.04
  11   8     0.01   0.01  -0.00     0.09   0.06  -0.02    -0.06  -0.02   0.01
  12   7     0.12   0.02  -0.16    -0.11   0.00   0.06    -0.00   0.03  -0.02
  13   6    -0.03   0.02   0.04     0.00  -0.00   0.00    -0.00  -0.01   0.01
  14   6    -0.02  -0.02   0.07     0.02  -0.02  -0.04    -0.00  -0.02   0.03
  15   8     0.02   0.02  -0.00    -0.03  -0.01  -0.01     0.00   0.00  -0.00
  16   8    -0.01  -0.02  -0.03     0.01   0.03   0.03    -0.00  -0.00  -0.01
  17   6    -0.04  -0.03   0.10     0.03   0.01  -0.03     0.01  -0.01   0.03
  18   6    -0.11   0.01  -0.03     0.06  -0.01  -0.00    -0.01  -0.01  -0.03
  19   8     0.02   0.00   0.00    -0.01   0.01  -0.00     0.00   0.01  -0.00
  20   8     0.02  -0.01   0.02    -0.01   0.00  -0.00     0.00  -0.01   0.02
  21   1    -0.24  -0.08   0.00     0.05   0.04  -0.01    -0.01   0.03  -0.00
  22   1     0.22   0.07  -0.06    -0.17  -0.02   0.02    -0.03   0.00   0.00
  23   1     0.14  -0.14   0.06    -0.08   0.04  -0.02    -0.10   0.04  -0.01
  24   1    -0.07   0.15   0.04    -0.06  -0.09   0.01    -0.11  -0.05   0.00
  25   1    -0.00  -0.02  -0.05    -0.11   0.06  -0.13     0.25  -0.18   0.31
  26   1     0.07  -0.08   0.10     0.17  -0.18   0.22    -0.28   0.29  -0.31
  27   1     0.01  -0.01   0.09     0.01  -0.00   0.06    -0.01  -0.00  -0.01
  28   1     0.09   0.08  -0.14     0.15   0.15  -0.19     0.12   0.14  -0.28
  29   1    -0.09  -0.06   0.20    -0.22  -0.15   0.44    -0.15  -0.11   0.31
  30   1    -0.00  -0.00   0.00    -0.09  -0.05   0.03     0.05   0.01  -0.01
  31   1     0.14  -0.16  -0.09    -0.03   0.02   0.01     0.07  -0.09  -0.06
  32   1    -0.10   0.16   0.08     0.05  -0.06  -0.03    -0.05   0.07   0.04
  33   1     0.01   0.02   0.03    -0.01  -0.03  -0.03     0.00   0.00   0.00
  34   1    -0.05  -0.11  -0.35     0.03   0.06   0.20    -0.00  -0.01  -0.03
  35   1     0.10   0.14   0.32    -0.06  -0.08  -0.19    -0.00   0.00   0.00
  36   1    -0.00   0.00  -0.01     0.00   0.00  -0.01    -0.00   0.01  -0.02
                     64                     65                     66
                        a                      a                      a 
 Frequencies --  1193.0830              1234.5373              1246.4238
 Red. masses --     5.4177                 5.0396                 4.2910
 Frc consts  --     0.0000                 0.0000                 0.0000
 IR Inten    --    20.5234                 1.3104                 4.7670
 Raman Activ --     0.0000                 0.0000                 0.0000
 Depolar     --     0.0000                 0.0000                 0.0000
 Atom AN      X      Y      Z        X      Y      Z        X      Y      Z
   1   6     0.16  -0.11  -0.02    -0.11  -0.04  -0.23    -0.06   0.01   0.03
   2   6    -0.02   0.04   0.01     0.01  -0.07  -0.04     0.03  -0.04  -0.09
   3   7    -0.01  -0.07   0.03    -0.04   0.05   0.14    -0.04   0.05   0.02
   4   6    -0.00   0.01  -0.02    -0.05   0.05  -0.11     0.08  -0.09   0.09
   5   6     0.01   0.01   0.00    -0.00  -0.02   0.01     0.08  -0.09   0.16
   6   8    -0.00  -0.00  -0.00    -0.03   0.03   0.06     0.05  -0.06  -0.16
   7   8    -0.00  -0.00   0.00     0.02  -0.03  -0.06    -0.09   0.11   0.12
   8   6     0.01   0.03   0.00     0.00   0.00   0.02     0.04   0.01  -0.07
   9   6    -0.01   0.02   0.01    -0.02  -0.02   0.02     0.06   0.02  -0.07
  10   8     0.00  -0.00  -0.00     0.05   0.02   0.02    -0.08  -0.03  -0.03
  11   8     0.00  -0.00  -0.00    -0.05  -0.02  -0.03     0.06   0.03   0.06
  12   7    -0.21   0.37  -0.05     0.01   0.05   0.36    -0.03   0.04   0.11
  13   6    -0.05  -0.13   0.03     0.01  -0.12  -0.13     0.05  -0.10  -0.08
  14   6     0.01  -0.09   0.07    -0.02   0.06   0.01     0.02  -0.05  -0.04
  15   8    -0.03  -0.00  -0.03     0.03   0.00   0.01     0.07   0.05   0.04
  16   8     0.02   0.04   0.02    -0.01  -0.02  -0.01    -0.09  -0.03  -0.03
  17   6     0.10  -0.01   0.15     0.06   0.04  -0.08     0.03   0.02  -0.00
  18   6     0.01  -0.05  -0.16     0.02  -0.00   0.05     0.01   0.01   0.07
  19   8     0.01   0.09  -0.02     0.01   0.06  -0.04     0.01   0.06  -0.05
  20   8    -0.00  -0.06   0.12    -0.01  -0.06   0.04    -0.01  -0.07   0.02
  21   1     0.03   0.02   0.01    -0.16   0.14   0.00    -0.14  -0.01   0.01
  22   1     0.02  -0.04   0.01     0.32  -0.09   0.07     0.28   0.02  -0.01
  23   1     0.02   0.00   0.00     0.41  -0.02  -0.04    -0.11  -0.04   0.03
  24   1    -0.01  -0.02  -0.01    -0.30   0.06   0.06     0.12   0.04  -0.01
  25   1    -0.03   0.02  -0.03     0.11  -0.10   0.08    -0.12   0.15  -0.09
  26   1     0.02  -0.02   0.02     0.04  -0.04   0.03    -0.13   0.12  -0.10
  27   1     0.00   0.00  -0.00     0.02  -0.02   0.15    -0.06   0.05  -0.52
  28   1    -0.03  -0.04   0.06     0.03   0.02  -0.09    -0.01  -0.00   0.09
  29   1     0.05   0.03  -0.09     0.02   0.01  -0.03    -0.04  -0.04   0.11
  30   1     0.01   0.00  -0.00     0.13   0.06  -0.04    -0.22  -0.11   0.07
  31   1     0.31  -0.43  -0.29    -0.09   0.13   0.10    -0.09   0.10   0.05
  32   1    -0.14   0.27   0.12     0.00  -0.04  -0.03    -0.09   0.06   0.04
  33   1    -0.01  -0.06  -0.03     0.00   0.02   0.02     0.04   0.20   0.15
  34   1     0.01  -0.02   0.12    -0.01  -0.02   0.08    -0.02  -0.04   0.02
  35   1    -0.10  -0.13  -0.28    -0.08  -0.09  -0.24    -0.03  -0.07  -0.12
  36   1    -0.01   0.05  -0.13    -0.01   0.07  -0.18    -0.01   0.07  -0.20
                     67                     68                     69
                        a                      a                      a 
 Frequencies --  1250.5867              1252.2991              1255.2937
 Red. masses --     4.7312                 4.8147                 5.0009
[...]
   3   7     0.01  -0.00   0.00     0.00   0.00   0.00    -0.02   0.01   0.00
   4   6    -0.05   0.04   0.02    -0.02   0.02   0.01    -0.02  -0.04  -0.02
   5   6     0.35  -0.39  -0.53     0.12  -0.14  -0.19    -0.00  -0.00  -0.00
   6   8    -0.23   0.26   0.41    -0.08   0.09   0.14    -0.00   0.00  -0.00
   7   8    -0.02   0.02   0.07    -0.01   0.01   0.02     0.00   0.00  -0.00
   8   6     0.00   0.00  -0.01     0.00   0.00   0.00     0.01  -0.05  -0.02
   9   6     0.04   0.01   0.03    -0.03  -0.01  -0.02     0.00  -0.00  -0.00
  10   8    -0.03  -0.01  -0.02     0.02   0.01   0.02    -0.00   0.00   0.00
  11   8    -0.01  -0.00  -0.00     0.00   0.00   0.00    -0.00  -0.00   0.00
  12   7     0.00  -0.00   0.00    -0.01   0.01  -0.00    -0.00  -0.00  -0.00
  13   6    -0.02   0.00  -0.00     0.06  -0.01   0.00    -0.03  -0.03   0.02
  14   6     0.24   0.09   0.09    -0.65  -0.23  -0.24    -0.00  -0.00   0.00
  15   8    -0.17  -0.07  -0.07     0.46   0.20   0.19    -0.00   0.00  -0.00
  16   8    -0.02  -0.02  -0.01     0.05   0.04   0.03     0.00   0.00  -0.00
  17   6     0.00   0.00   0.00     0.00   0.01  -0.00     0.00   0.00  -0.00
  18   6    -0.00  -0.03   0.01    -0.02  -0.11   0.04    -0.00   0.00   0.00
  19   8     0.00   0.02  -0.01     0.01   0.08  -0.03     0.00  -0.00  -0.00
  20   8    -0.00   0.00  -0.00     0.00   0.01  -0.01     0.00  -0.00  -0.00
  21   1    -0.00   0.00  -0.00     0.00  -0.00  -0.00     0.00  -0.02   0.05
  22   1     0.00  -0.00  -0.00    -0.01   0.00  -0.00     0.00   0.06   0.04
  23   1    -0.00   0.00  -0.00     0.00  -0.00  -0.00    -0.07  -0.65  -0.62
  24   1     0.01  -0.00  -0.00     0.00  -0.00  -0.00    -0.01   0.09  -0.10
  25   1    -0.02   0.05   0.00    -0.01   0.02  -0.00    -0.00  -0.00  -0.00
  26   1    -0.05   0.02   0.00    -0.02   0.01   0.00     0.06   0.13   0.07
  27   1    -0.02   0.02  -0.16    -0.01   0.01  -0.06     0.00  -0.00   0.00
  28   1    -0.01  -0.02  -0.00    -0.00  -0.01   0.00    -0.03   0.01  -0.01
  29   1    -0.01   0.00  -0.00    -0.00  -0.00   0.00     0.01   0.18   0.06
  30   1     0.01   0.00  -0.00    -0.01  -0.00   0.00     0.00   0.00  -0.00
  31   1    -0.02   0.01  -0.00     0.04  -0.02   0.01     0.09   0.14  -0.09
  32   1    -0.02   0.00   0.01     0.05  -0.00  -0.02    -0.00  -0.01   0.01
  33   1     0.01   0.05   0.03    -0.02  -0.12  -0.09    -0.00   0.00   0.00
  34   1     0.00   0.01  -0.01    -0.00  -0.00   0.02     0.00  -0.00  -0.00
  35   1    -0.00   0.00  -0.00     0.01  -0.00   0.01    -0.00  -0.00   0.00
  36   1     0.00  -0.00   0.01    -0.00  -0.01   0.03    -0.00   0.00  -0.00
                     88                     89                     90
                        a                      a                      a 
 Frequencies --  2883.5883              2887.6683              2889.6707
 Red. masses --     1.7643                 1.7540                 1.7579
 Frc consts  --     0.0000                 0.0000                 0.0000
 IR Inten    --    15.8693                 9.8302               111.7141
 Raman Activ --     0.0000                 0.0000                 0.0000
 Depolar     --     0.0000                 0.0000                 0.0000
 Atom AN      X      Y      Z        X      Y      Z        X      Y      Z
   1   6    -0.00   0.00   0.00     0.00  -0.00  -0.00     0.00  -0.01  -0.02
   2   6     0.00   0.00   0.02     0.00  -0.01  -0.00     0.01   0.04   0.07
   3   7     0.00   0.01  -0.02    -0.01  -0.01  -0.01     0.01   0.01   0.01
   4   6    -0.07  -0.14  -0.06    -0.06  -0.11  -0.05     0.06   0.12   0.05
   5   6    -0.00  -0.01  -0.00    -0.00  -0.01  -0.00     0.00   0.01   0.00
   6   8    -0.00   0.00   0.00    -0.00   0.00   0.00     0.00  -0.00  -0.00
   7   8    -0.00   0.00   0.00     0.00   0.00   0.00     0.00  -0.00  -0.00
   8   6    -0.01   0.19   0.06     0.01  -0.11  -0.03    -0.01   0.10   0.03
   9   6     0.00   0.01   0.00    -0.00  -0.00  -0.00     0.00   0.00   0.00
  10   8    -0.00  -0.00  -0.00     0.00   0.00   0.00    -0.00  -0.00  -0.00
  11   8    -0.00  -0.00  -0.00     0.00   0.00   0.00    -0.00  -0.00  -0.00
  12   7     0.00   0.00   0.00     0.00   0.01   0.00     0.00   0.01   0.00
  13   6     0.00   0.00  -0.00     0.08   0.13  -0.11     0.07   0.12  -0.10
  14   6     0.00   0.00  -0.00     0.01   0.01  -0.00     0.01   0.01  -0.00
  15   8    -0.00  -0.00  -0.00    -0.00  -0.00  -0.00    -0.00  -0.00  -0.00
  16   8     0.00  -0.00   0.00    -0.00  -0.00   0.00    -0.00  -0.00   0.00
  17   6    -0.00  -0.00   0.00    -0.01  -0.01   0.01    -0.01  -0.01   0.00
  18   6    -0.00   0.00   0.00    -0.00  -0.00  -0.00    -0.00   0.00  -0.00
  19   8     0.00  -0.00  -0.00    -0.00   0.00   0.00     0.00  -0.00   0.00
  20   8    -0.00  -0.00   0.00     0.00  -0.00   0.00     0.00   0.00   0.00
  21   1    -0.00   0.00  -0.00     0.00  -0.00   0.00     0.00  -0.01   0.03
  22   1     0.00  -0.00  -0.00     0.00   0.00   0.00    -0.00   0.05   0.03
  23   1    -0.00  -0.03  -0.03    -0.00   0.03   0.03    -0.02  -0.21  -0.20
  24   1    -0.00   0.02  -0.03    -0.00   0.00  -0.01    -0.00   0.04  -0.05
  25   1     0.04  -0.00  -0.04     0.02  -0.01  -0.02    -0.03   0.00   0.03
  26   1     0.24   0.49   0.28     0.19   0.40   0.23    -0.20  -0.42  -0.24
  27   1     0.00  -0.00   0.00     0.00  -0.00  -0.00    -0.00   0.00   0.00
  28   1     0.05  -0.00   0.02    -0.04   0.00  -0.02     0.04  -0.00   0.01
  29   1    -0.05  -0.70  -0.23     0.03   0.41   0.13    -0.03  -0.38  -0.12
  30   1     0.00  -0.00   0.00    -0.00   0.00  -0.00     0.00   0.00   0.00
  31   1    -0.01  -0.01   0.01    -0.35  -0.51   0.32    -0.31  -0.46   0.29
  32   1     0.00  -0.00   0.00     0.04   0.01   0.05     0.05   0.00   0.06
  33   1    -0.00   0.00  -0.00     0.00  -0.00  -0.00     0.00  -0.00   0.00
  34   1     0.00  -0.00   0.00    -0.00   0.00   0.00    -0.00   0.00   0.00
  35   1     0.00   0.00  -0.00     0.03   0.02  -0.02     0.03   0.02  -0.02
  36   1     0.00   0.00   0.00     0.00   0.00  -0.00    -0.00  -0.00  -0.00
                     91                     92                     93
                        a                      a                      a 
 Frequencies --  2911.8639              2920.8822              2929.4480
 Red. masses --     1.8162                 1.8556                 1.6778
 Frc consts  --     0.0000                 0.0000                 0.0000
 IR Inten    --    19.2458                28.9516                19.4584
 Raman Activ --     0.0000                 0.0000                 0.0000
 Depolar     --     0.0000                 0.0000                 0.0000
 Atom AN      X      Y      Z        X      Y      Z        X      Y      Z
   1   6    -0.00   0.00  -0.05     0.00  -0.00  -0.27     0.00  -0.01   0.06
   2   6    -0.00   0.00  -0.01     0.00  -0.03  -0.00     0.00   0.01   0.01
   3   7     0.00  -0.00  -0.00     0.00  -0.00  -0.00    -0.00   0.00   0.00
   4   6    -0.00  -0.00   0.00    -0.01  -0.01   0.00     0.00   0.00  -0.00
   5   6    -0.00  -0.00   0.00     0.00  -0.00  -0.00     0.00   0.00   0.00
   6   8    -0.00  -0.00  -0.00    -0.00   0.00   0.00     0.00  -0.00  -0.00
   7   8     0.00  -0.00  -0.00     0.00  -0.00   0.00    -0.00   0.00   0.00
   8   6     0.00  -0.00  -0.00    -0.00  -0.00  -0.00     0.00   0.00   0.00
   9   6     0.00   0.00   0.00    -0.00  -0.00  -0.00     0.00   0.00   0.00
  10   8    -0.00  -0.00  -0.00     0.00   0.00   0.00    -0.00  -0.00  -0.00
  11   8    -0.00   0.00   0.00     0.00   0.00  -0.00    -0.00  -0.00   0.00
  12   7    -0.00  -0.01   0.01    -0.01   0.00  -0.01     0.00   0.00   0.01
  13   6    -0.01  -0.01  -0.00     0.02  -0.01   0.05     0.11  -0.02   0.21
  14   6    -0.00  -0.00  -0.00     0.00  -0.00   0.00     0.01  -0.00   0.01
  15   8     0.00   0.00   0.00    -0.00  -0.00  -0.00    -0.00  -0.00  -0.00
  16   8     0.00   0.00   0.00    -0.00   0.00   0.00    -0.00   0.00  -0.00
  17   6    -0.23  -0.08   0.10     0.03   0.01  -0.01    -0.03   0.00   0.01
  18   6    -0.01  -0.01   0.00     0.00   0.00  -0.00    -0.00  -0.00   0.00
  19   8     0.00   0.00  -0.00    -0.00  -0.00   0.00     0.00   0.00  -0.00
  20   8     0.00   0.00  -0.00    -0.00  -0.00   0.00     0.00   0.00   0.00
  21   1     0.00  -0.05   0.14     0.02  -0.28   0.81    -0.01   0.07  -0.19
  22   1    -0.00   0.04   0.03    -0.01   0.28   0.17     0.00  -0.03  -0.02
  23   1     0.00   0.01   0.01     0.01   0.06   0.07    -0.01  -0.03  -0.03
  24   1     0.00  -0.01   0.03    -0.01   0.04  -0.08     0.00  -0.00   0.01
  25   1     0.01   0.00  -0.00     0.03   0.01  -0.02    -0.02  -0.01   0.01
  26   1    -0.00  -0.00   0.00     0.00   0.01   0.01    -0.00  -0.00  -0.00
  27   1    -0.00  -0.00  -0.00    -0.00   0.00  -0.00     0.00  -0.00   0.00
  28   1    -0.00   0.00  -0.00     0.00  -0.00   0.00    -0.00   0.00  -0.00
  29   1     0.00   0.00   0.00     0.00   0.01   0.00    -0.00  -0.00  -0.00
  30   1    -0.00   0.00  -0.00    -0.00   0.00   0.00     0.00   0.00  -0.00
  31   1     0.03   0.05  -0.03    -0.00  -0.01   0.01    -0.04  -0.08   0.08
  32   1     0.02  -0.01   0.04    -0.09   0.04  -0.20    -0.36   0.16  -0.84
  33   1    -0.00  -0.00   0.00     0.00  -0.00  -0.00     0.00  -0.00  -0.00
  34   1     0.13  -0.13   0.03    -0.02   0.02  -0.01     0.06  -0.05   0.01
  35   1     0.70   0.42  -0.45    -0.10  -0.06   0.07     0.05   0.03  -0.03
  36   1    -0.00  -0.00  -0.00     0.00   0.00   0.00     0.00   0.00   0.00
                     94                     95                     96
                        a                      a                      a 
 Frequencies --  2953.8661              2955.8441              2958.8510
 Red. masses --     1.6914                 1.6237                 1.6848
 Frc consts  --     0.0000                 0.0000                 0.0000
 IR Inten    --     4.9848                 7.4396                10.3645
 Raman Activ --     0.0000                 0.0000                 0.0000
 Depolar     --     0.0000                 0.0000                 0.0000
 Atom AN      X      Y      Z        X      Y      Z        X      Y      Z
   1   6    -0.00   0.01   0.01    -0.00   0.04   0.01     0.00  -0.04  -0.02
   2   6    -0.00   0.02  -0.02     0.00   0.01  -0.00    -0.00   0.01  -0.03
   3   7    -0.00  -0.00   0.01     0.00   0.00  -0.00     0.01   0.00  -0.00
   4   6    -0.18  -0.07   0.13     0.01   0.01  -0.01     0.06   0.02  -0.04
   5   6    -0.01   0.00   0.01     0.00  -0.00  -0.00     0.00  -0.00  -0.00
   6   8     0.00  -0.00  -0.00    -0.00   0.00   0.00    -0.00  -0.00   0.00
   7   8     0.00  -0.00  -0.00    -0.00   0.00   0.00    -0.00  -0.00  -0.00
   8   6     0.07  -0.03   0.01    -0.01   0.00  -0.00     0.20  -0.09   0.04
   9   6     0.00  -0.00   0.00    -0.00   0.00   0.00     0.01  -0.00   0.01
  10   8    -0.00  -0.00  -0.00     0.00  -0.00  -0.00    -0.00  -0.00  -0.00
  11   8    -0.00  -0.00  -0.00     0.00   0.00   0.00    -0.00   0.00  -0.00
  12   7     0.00   0.00   0.00     0.00  -0.00   0.01     0.00  -0.00  -0.00
  13   6     0.00   0.00   0.00     0.01  -0.00   0.02    -0.00  -0.00  -0.00
  14   6     0.00   0.00   0.00    -0.00  -0.00  -0.00    -0.00  -0.00  -0.00
  15   8    -0.00  -0.00  -0.00     0.00  -0.00  -0.00     0.00   0.00   0.00
  16   8     0.00  -0.00  -0.00     0.00   0.00   0.00     0.00  -0.00  -0.00
  17   6     0.01  -0.01   0.00     0.16  -0.16   0.04     0.01  -0.00   0.00
  18   6     0.00  -0.00  -0.00     0.00  -0.01  -0.00     0.00  -0.00  -0.00
  19   8     0.00   0.00  -0.00     0.00   0.00  -0.00    -0.00   0.00  -0.00
  20   8     0.00   0.00   0.00     0.00   0.00   0.00    -0.00  -0.00   0.00
  21   1    -0.00   0.00  -0.01     0.00  -0.01   0.05    -0.00   0.01  -0.04
  22   1     0.00  -0.04  -0.03     0.00  -0.13  -0.10    -0.00   0.14   0.10
  23   1    -0.00  -0.02  -0.02    -0.00  -0.01  -0.01    -0.00   0.01  -0.00
  24   1     0.01  -0.04   0.08     0.00  -0.01   0.01     0.01  -0.05   0.11
  25   1     0.72   0.30  -0.46    -0.06  -0.02   0.04    -0.24  -0.10   0.15
  26   1    -0.06  -0.07  -0.02     0.00   0.00   0.00     0.02   0.02   0.00
  27   1    -0.00   0.00   0.00     0.00  -0.00   0.00    -0.00   0.00   0.00
  28   1    -0.26   0.14  -0.05     0.02  -0.01   0.00    -0.77   0.42  -0.15
  29   1     0.01  -0.02  -0.00    -0.00  -0.00  -0.00     0.02  -0.10  -0.02
  30   1     0.00   0.00   0.00    -0.00  -0.00  -0.00     0.00   0.00   0.00
  31   1    -0.00  -0.01   0.00     0.00   0.00   0.00     0.00   0.00  -0.00
  32   1    -0.01   0.00  -0.01    -0.02   0.01  -0.06     0.00  -0.00   0.01
  33   1    -0.00   0.00  -0.00    -0.00  -0.00  -0.00    -0.00   0.00  -0.00
  34   1    -0.05   0.04  -0.00    -0.76   0.52  -0.06    -0.02   0.02  -0.00
  35   1     0.01   0.00  -0.00     0.18   0.07  -0.10     0.00  -0.00  -0.00
  36   1    -0.00  -0.00  -0.00    -0.00  -0.00  -0.00     0.00   0.00  -0.00
                     97                     98                     99
                        a                      a                      a 
 Frequencies --  2962.3820              2972.1880              3307.0425
 Red. masses --     1.6063                 1.6355                 1.8514
 Frc consts  --     0.0000                 0.0000                 0.0000
 IR Inten    --     6.3028                39.8896                45.1098
 Raman Activ --     0.0000                 0.0000                 0.0000
 Depolar     --     0.0000                 0.0000                 0.0000
 Atom AN      X      Y      Z        X      Y      Z        X      Y      Z
   1   6    -0.01   0.20   0.06    -0.00  -0.07   0.01    -0.00  -0.00   0.00
   2   6     0.01  -0.03   0.07     0.02  -0.13   0.18    -0.00   0.00  -0.00
   3   7     0.00  -0.00   0.00     0.00  -0.01   0.01    -0.00   0.00   0.00
   4   6     0.02   0.01  -0.01    -0.01  -0.00   0.01     0.00  -0.00  -0.00
   5   6     0.00   0.00   0.00    -0.00   0.00   0.00    -0.00   0.00  -0.00
   6   8    -0.00  -0.00   0.00     0.00  -0.00  -0.00    -0.00   0.00  -0.00
   7   8    -0.00   0.00  -0.00     0.00  -0.00   0.00    -0.00   0.00   0.00
   8   6     0.04  -0.02   0.01     0.02  -0.01   0.00     0.00  -0.00  -0.00
   9   6     0.00  -0.00   0.00     0.00  -0.00   0.00    -0.00  -0.00   0.00
  10   8    -0.00  -0.00  -0.00    -0.00   0.00   0.00    -0.00   0.00   0.00
  11   8    -0.00   0.00  -0.00     0.00   0.00   0.00     0.00   0.00   0.01
  12   7    -0.01   0.01   0.00     0.00  -0.00   0.00     0.00   0.00   0.00
  13   6     0.00   0.00   0.00    -0.00  -0.00   0.00    -0.00  -0.00   0.00
  14   6     0.00   0.00   0.00    -0.00  -0.00   0.00     0.00  -0.01  -0.01
  15   8    -0.00  -0.00   0.00     0.00   0.00  -0.00     0.00  -0.00  -0.00
  16   8    -0.00  -0.00  -0.00     0.00  -0.00  -0.00     0.23  -0.04  -0.02
  17   6    -0.03   0.03  -0.01     0.00  -0.02   0.01    -0.00   0.00  -0.00
  18   6    -0.00   0.00  -0.00    -0.00  -0.00   0.00    -0.00  -0.00  -0.00
  19   8     0.00  -0.00   0.00    -0.00   0.00  -0.00    -0.00   0.00   0.00
  20   8     0.00   0.00  -0.00     0.00   0.00   0.00    -0.00  -0.00  -0.00
  21   1     0.01  -0.07   0.30    -0.00   0.05  -0.19    -0.00   0.00  -0.00
  22   1     0.01  -0.66  -0.50    -0.00   0.20   0.15     0.00  -0.00  -0.00
  23   1     0.00  -0.00   0.01     0.01   0.10   0.14    -0.00  -0.00   0.00
  24   1    -0.03   0.13  -0.27    -0.09   0.37  -0.80     0.00  -0.00   0.00
  25   1    -0.06  -0.02   0.04     0.06   0.02  -0.04     0.00   0.00   0.00
  26   1    -0.00  -0.01  -0.01    -0.01  -0.01  -0.01    -0.00   0.00   0.00
  27   1     0.00   0.00   0.00    -0.00   0.00  -0.00     0.01  -0.01  -0.00
  28   1    -0.17   0.09  -0.03    -0.08   0.04  -0.01    -0.00   0.00  -0.00
  29   1     0.00  -0.02  -0.00     0.01   0.01   0.01    -0.00   0.00   0.00
  30   1    -0.00   0.00   0.00    -0.00  -0.00  -0.00    -0.01  -0.00  -0.02
  31   1    -0.01  -0.01   0.01     0.01   0.02  -0.01    -0.00  -0.00   0.00
  32   1    -0.01   0.00  -0.01     0.01  -0.00   0.01    -0.00   0.00  -0.00
  33   1     0.00  -0.00  -0.00    -0.00  -0.00   0.00    -0.94   0.21   0.10
  34   1     0.13  -0.09   0.01    -0.06   0.04  -0.00     0.00  -0.00  -0.00
  35   1    -0.02  -0.00   0.01     0.04   0.02  -0.03    -0.00  -0.00   0.00
  36   1    -0.00  -0.00   0.00    -0.00  -0.00  -0.00     0.00   0.01   0.00
                    100                    101                    102
                        a                      a                      a 
 Frequencies --  3308.9121              3313.5564              3317.7040
 Red. masses --     1.8510                 1.8512                 1.8512
 Frc consts  --     0.0000                 0.0000                 0.0000
 IR Inten    --    50.1125                40.2760                46.9504
 Raman Activ --     0.0000                 0.0000                 0.0000
 Depolar     --     0.0000                 0.0000                 0.0000
 Atom AN      X      Y      Z        X      Y      Z        X      Y      Z
   1   6    -0.00  -0.00  -0.00     0.00  -0.00  -0.00     0.00   0.00   0.00
   2   6     0.00   0.00   0.00     0.00  -0.00   0.00    -0.00  -0.00  -0.00
   3   7    -0.00   0.00   0.00    -0.00  -0.00  -0.00     0.00  -0.00   0.00
   4   6     0.00  -0.00  -0.00     0.00   0.00  -0.00     0.00   0.00  -0.00
   5   6    -0.01   0.01  -0.01     0.00  -0.00   0.00    -0.00   0.00  -0.00
   6   8    -0.00   0.00   0.00    -0.00  -0.00   0.00    -0.00  -0.00   0.00
   7   8    -0.15   0.18   0.03     0.00  -0.00  -0.00    -0.01   0.01   0.00
   8   6     0.00  -0.00   0.00     0.00   0.00   0.00     0.00   0.00  -0.00
   9   6     0.00   0.00  -0.00     0.01   0.01  -0.01     0.00   0.00  -0.00
  10   8     0.00  -0.00   0.00    -0.00  -0.00  -0.00     0.00  -0.00  -0.00
  11   8    -0.00  -0.00  -0.00    -0.06  -0.02  -0.23    -0.01  -0.00  -0.02
  12   7    -0.00   0.00   0.00     0.00   0.00   0.00     0.00  -0.00   0.00
  13   6    -0.00   0.00  -0.00     0.00   0.00  -0.00    -0.00   0.00  -0.00
  14   6    -0.00   0.00   0.00     0.00  -0.00  -0.00    -0.00   0.00  -0.00
  15   8    -0.00  -0.00   0.00    -0.00  -0.00   0.00    -0.00  -0.00   0.00
  16   8    -0.00   0.00   0.00     0.01  -0.00  -0.00    -0.00   0.00   0.00
  17   6     0.00  -0.00  -0.00    -0.00  -0.00   0.00    -0.00   0.00  -0.00
  18   6     0.00   0.00   0.00     0.00   0.00   0.00    -0.00  -0.00  -0.02
  19   8     0.00   0.00   0.00     0.00   0.00   0.00    -0.00  -0.00  -0.00
  20   8     0.00   0.01   0.00     0.00   0.02   0.01    -0.05  -0.22  -0.08
  21   1     0.00  -0.00   0.00    -0.00  -0.00  -0.00    -0.00  -0.00   0.00
  22   1    -0.00   0.00   0.00     0.00  -0.00  -0.00    -0.00  -0.00  -0.00
  23   1     0.00  -0.00  -0.00    -0.00   0.00   0.00     0.00  -0.00   0.00
  24   1    -0.00   0.00  -0.00     0.00   0.00  -0.00     0.00   0.00  -0.00
  25   1     0.00   0.00  -0.00    -0.00  -0.00   0.00    -0.00  -0.00   0.00
  26   1    -0.00  -0.00  -0.00    -0.00   0.00   0.00    -0.00  -0.00  -0.00
  27   1     0.63  -0.73  -0.07    -0.01   0.01   0.00     0.03  -0.03  -0.00
  28   1    -0.00   0.00  -0.00     0.00  -0.00   0.00     0.00  -0.00   0.00
  29   1     0.00  -0.00  -0.00    -0.00   0.00   0.00     0.00   0.00   0.00
  30   1     0.00   0.00   0.02     0.21   0.07   0.94     0.02   0.01   0.08
  31   1    -0.00  -0.00   0.00    -0.00  -0.00   0.00     0.00   0.00   0.00
  32   1     0.00  -0.00   0.00    -0.00   0.00  -0.00     0.00  -0.00   0.00
  33   1     0.01  -0.00  -0.00    -0.02   0.01   0.00     0.01  -0.00  -0.00
  34   1     0.00   0.00   0.00     0.00  -0.00  -0.00    -0.00   0.00   0.00
  35   1    -0.00   0.00   0.00     0.00   0.00  -0.00     0.00   0.00  -0.00
  36   1    -0.01  -0.04  -0.02    -0.02  -0.07  -0.03     0.20   0.88   0.36
