36
 energy: -67.990448337080 gnorm: 0.000760996993 xtb: 6.6.0 (conda-forge)
C           -0.59333786318971        0.33518904860795        1.72554548664657
C            0.81563087077629        0.76872382563343        1.27275237314427
N            1.39165167013239       -0.12847498179452        0.28234812189114
C            1.82931779515095       -1.38525372490476        0.84884162235739
C            1.89691969500455       -2.48085580126959       -0.18810622030764
O            1.54025418795211       -2.40363228008083       -1.33152396485303
O            2.41820108954156       -3.59950198694020        0.33055582861690
C            2.42711519379063        0.48250821284401       -0.52052072341397
C            1.90579265571334        1.52805354558345       -1.47926577760979
O            0.76489375864284        1.86834503198513       -1.63135236385304
O            2.91195964665235        2.06643672347416       -2.17783198040141
N           -1.64599587398113        0.39332917807706        0.73312940697017
C           -1.90867275516110        1.74041658756669        0.26044790273841
C           -3.31041185544710        1.92788040682838       -0.27340003005746
O           -4.02734817747746        1.10011107139760       -0.76433439415804
O           -3.68115840801860        3.21507450491905       -0.17015691720105
C           -1.51515462185255       -0.53457838797529       -0.37900498162226
C           -1.49780370934839       -1.99428034368790       -0.01748933614170
O           -1.10581762387914       -2.51045192036768        0.99971801452896
O           -1.94945690520810       -2.72667242976905       -1.04043384024223
H           -0.88943080454629        0.98774668127034        2.55243425558904
H           -0.57590141209749       -0.68573318599210        2.10311845620552
H            1.46173409554930        0.84608714437423        2.16535925792908
H            0.74719498110879        1.75934039054703        0.82277848682593
H            1.09703246464731       -1.72472943473603        1.58423069158384
H            2.80845356355659       -1.32053499680584        1.35582103946141
H            2.41815982265470       -4.31094198670386       -0.32942078771819
H            2.88601763266787       -0.28874753739939       -1.14502468751244
H            3.23126294962437        0.94852366787516        0.07954523682867
H            2.57398241898458        2.71768025579279       -2.81340788945009
H           -1.22845292050268        2.04401860730020       -0.55402445633171
H           -1.78305314255094        2.44508856042420        1.08463379410629
H           -4.56459856105442        3.33963622491730       -0.55225908927796
H           -2.36908239367178       -0.38514227819478       -1.04156556853070
H           -0.59140977995454       -0.36169480551635       -0.95669772925366
H           -1.88848768420766       -3.67296358728490       -0.83543923749376
