36
 energy: -67.961609030313 gnorm: 0.101249867918 xtb: 6.6.0 (conda-forge)
C           -0.76321172148756       -0.54350684130636        0.44785406416200
C            0.51931641224135        0.29358135391163        0.18267159636819
N            1.74999728496737       -0.52793431227516        0.17899275686326
C            2.16253556872865       -0.87634777784617        1.56114880717545
C            3.18651783932394       -2.00979318726663        1.60400713476447
O            3.71088311839249       -2.60315425481353        0.67631501001379
O            3.51607745637017       -2.33158848928473        2.87569136179004
C            2.84848945503532        0.17491895451648       -0.53481639900712
C            2.65272273529825        0.16991336527255       -2.05112134247954
O            1.69005044912378       -0.20886713366296       -2.69846370700758
O            3.71862475274974        0.70395115197609       -2.69082740362579
N           -2.06236960636379        0.14302645853929        0.27340686776587
C           -2.13654790893403        1.39649556876443        1.05059772005684
C           -3.57137422944612        1.86130133083747        1.29117504535697
O           -4.61181901401316        1.40605887854159        0.84715632924207
O           -3.60986698792904        2.94512321904610        2.10063888796796
C           -2.40629702322955        0.35109786344264       -1.15423646833279
C           -2.74457276762431       -0.95340494579942       -1.87379239259626
O           -2.90693022129719       -2.06869756198152       -1.40648058625825
O           -2.88482075387439       -0.76210220651287       -3.20630376443364
H           -0.74037442302055       -0.91500521040670        1.47941124704606
H           -0.73290973615130       -1.44546417323627       -0.17479806977648
H            0.60952722060949        1.10163435251937        0.92000503513730
H            0.39932127696241        0.78278004264800       -0.78831793728177
H            1.30279730843138       -1.24206626508384        2.13170497715598
H            2.57917988661164       -0.00173943132490        2.07443996525947
H            4.15081033354693       -3.07141240528769        2.76589615386990
H            3.80664916595521       -0.32506922633324       -0.35963312471782
H            2.93385730505624        1.21278803484199       -0.19155178740063
H            3.47991299544474        0.61646311734807       -3.63791125882018
H           -1.58633373761590        2.20421771565249        0.55459703245672
H           -1.70787183816783        1.22971429026475        2.04665231796185
H           -4.56997510521034        3.13021606868039        2.18077058737284
H           -3.30183837935097        0.97409488100511       -1.24921637114710
H           -1.59274841306857        0.85146150548444       -1.68926205629800
H           -3.08740869806123       -1.66268473087161       -3.53640022860616
36
 energy: -67.973477874162 gnorm: 0.034908123351 xtb: 6.6.0 (conda-forge)
C           -0.75491992924159       -0.54204207282026        0.45988587172535
C            0.51657482297341        0.29744932045037        0.19003182576666
N            1.73587276662148       -0.52010038763001        0.17876225728350
C            2.16056000740528       -0.87458547342112        1.53761540382890
C            3.18305176117597       -1.99467988556285        1.58285406949810
O            3.69750336821784       -2.56561014765850        0.65909747459908
O            3.49895905841173       -2.32408466769631        2.85153329091523
C            2.82213111151372        0.16426607306933       -0.53451869996738
C            2.62971516829001        0.17048379199993       -2.03830094798729
O            1.67276517339518       -0.19939039428997       -2.66423645177480
O            3.70297708798491        0.68431122732367       -2.67237973883920
N           -2.03388409421406        0.14473387159073        0.26328614637707
C           -2.13676365348927        1.38322159632513        1.03532008171939
C           -3.56307024573036        1.84733661639126        1.26912121355705
O           -4.57838570658374        1.39066355823875        0.81749916339632
O           -3.60339246358054        2.91747269002060        2.09045582576947
C           -2.38839818540805        0.34143286393120       -1.14470286682694
C           -2.72939064077650       -0.95309211268981       -1.85467267215306
O           -2.87546053084215       -2.04610787542876       -1.37777709307377
O           -2.88396651205390       -0.76022876532050       -3.18030634680369
H           -0.75326931056768       -0.90517365360212        1.49292723620909
H           -0.73841208736277       -1.42141809016708       -0.18743195947629
H            0.60557429302499        1.10620103903797        0.93355730717539
H            0.42050748337747        0.75841484599940       -0.79608284142659
H            1.29903885525588       -1.23590957253213        2.10272768333256
H            2.58341234196539       -0.01248160142665        2.07603962902796
H            4.13860466718892       -3.05846162933410        2.78252279529021
H            3.76850373784942       -0.35175641628194       -0.35444837865138
H            2.93422803956311        1.20889282396693       -0.20415128972801
H            3.49903752915728        0.62269231929188       -3.62504082746780
H           -1.59808741042774        2.21776577613903        0.56324493314213
H           -1.70940300575019        1.21658104588069        2.02816075988017
H           -4.54973080274419        3.13639360068895        2.18889704930081
H           -3.29056394492575        0.95749422896566       -1.21153028106148
H           -1.59147230414275        0.84031927588134       -1.71214552447006
H           -3.09044644552745       -1.64100381933148       -3.54581409808874
36
 energy: -67.977756772098 gnorm: 0.017472007177 xtb: 6.6.0 (conda-forge)
C           -0.74893038604635       -0.53641452250424        0.46592924479244
C            0.51613244339930        0.30182625779318        0.19761134259236
N            1.73020421161171       -0.50523428120756        0.18571206134750
C            2.15055023114046       -0.87317313994937        1.52354604143417
C            3.17138349302338       -1.98668447256462        1.55612706490106
O            3.69194583939727       -2.52581164550054        0.62428950344064
O            3.47653886618920       -2.31657631773420        2.82402317744553
C            2.80535147281632        0.15272638361408       -0.53369400794451
C            2.60399886098408        0.16005173329647       -2.02903631032844
O            1.63388304147972       -0.18984903518768       -2.63432002275698
O            3.68312514335950        0.66351134550122       -2.65458354391286
N           -2.00802248896632        0.15666976918687        0.25197622935080
C           -2.12977218741707        1.37421537437886        1.02657128888161
C           -3.55773481176064        1.82208034048393        1.24940127750047
O           -4.55341321933596        1.36629559656752        0.76968549842176
O           -3.59591746200744        2.88341362610356        2.07785691830460
C           -2.37075047219509        0.33823199398043       -1.13808028094422
C           -2.71019401113767       -0.95829679225065       -1.83174812197696
O           -2.83582600699092       -2.03868856074414       -1.33674060231725
O           -2.88220948714483       -0.76008727790779       -3.15133560057306
H           -0.75965280090506       -0.89148701455077        1.49962508465602
H           -0.73742419101009       -1.40455788698320       -0.19080613174340
H            0.59991072158510        1.11753361836215        0.93828123037719
H            0.42782117745746        0.73980058427144       -0.79727927497290
H            1.28485984179522       -1.23377374358813        2.08072756633307
H            2.57614075980269       -0.02154216700054        2.08800923780268
H            4.12635337850848       -3.04156748396510        2.80383765945794
H            3.73909753629936       -0.38340490647454       -0.35313329283068
H            2.95096785626933        1.20247938408560       -0.21238632058675
H            3.52058059920041        0.63361049435304       -3.61434534236543
H           -1.60033096030590        2.23521502399239        0.57831094346227
H           -1.70316668641645        1.20439538940767        2.01756702210599
H           -4.52624363896892        3.14487425568642        2.19596651619066
H           -3.27957428168005        0.94569315712397       -1.18052404594776
H           -1.59346322156105        0.84158689001351       -1.73736604835860
H           -3.09621916046585       -1.61706197009003       -3.55967596124103
36
 energy: -67.978631743111 gnorm: 0.008795626397 xtb: 6.6.0 (conda-forge)
C           -0.74279696449129       -0.53123577722206        0.47075339047581
C            0.51702334064920        0.31118266330339        0.19969555053665
N            1.72770285427194       -0.49452886792550        0.19135827568281
C            2.14038286449332       -0.87485801072498        1.52249749992004
C            3.17069036213829       -1.98007906751697        1.54462736802962
O            3.69942374960678       -2.50055527204915        0.60435189441121
O            3.45789441712063       -2.32392368152859        2.81153804401107
C            2.80246282368592        0.14571981226355       -0.53486094762848
C            2.58297627256418        0.16450251264247       -2.02813194817867
O            1.59882363376554       -0.17099792521294       -2.62308780547191
O            3.67171044817312        0.64477101778902       -2.65278574856420
N           -1.99318073661984        0.16815162909402        0.24750836879113
C           -2.12334328376135        1.37528465208497        1.02672145211133
C           -3.55642001794856        1.81633593200328        1.23200428285558
O           -4.54271584478394        1.35894173036113        0.73049255020834
O           -3.59984124925956        2.86120156695665        2.07906948494049
C           -2.36114411452858        0.34055029829554       -1.13788988273464
C           -2.69383011241799       -0.96475575671390       -1.82010396545603
O           -2.79784078339177       -2.04377544101496       -1.31208920570933
O           -2.88344071265607       -0.76603218372462       -3.13577637279873
H           -0.75804609030053       -0.88297985601071        1.50544302134539
H           -0.72708759309403       -1.40042575236019       -0.18334097885076
H            0.59787854981544        1.13134401692291        0.93664144969364
H            0.42342792427582        0.74330729436926       -0.79592977924591
H            1.27338914381981       -1.24283296263269        2.07336211357909
H            2.56229659903828       -0.02856373359393        2.10204778886236
H            4.11400376634812       -3.04147159254824        2.81456217209598
H            3.72851499378741       -0.40751408169164       -0.36557522810368
H            2.97348077871993        1.19408589472391       -0.21386011053810
H            3.52810934239543        0.63174980342695       -3.61427373349018
H           -1.59570759341808        2.24642467522277        0.59154083779041
H           -1.70228118247273        1.20242446420700        2.01983657510601
H           -4.52174294328598        3.14185307611236        2.20411359828499
H           -3.27568428510620        0.93847712884192       -1.17600122139504
H           -1.59596461258143        0.84932451665290       -1.75080386328713
H           -3.09912374454788       -1.61110272280374       -3.56365492728125
36
 energy: -67.978918906520 gnorm: 0.006705022293 xtb: 6.6.0 (conda-forge)
C           -0.73839851259631       -0.52210716015256        0.47566202301223
C            0.52068705477307        0.32090770084882        0.20321461196082
N            1.72813852951881       -0.48763718167311        0.19342166536834
C            2.13531021656232       -0.87823432735120        1.52286482200794
C            3.16863402223063       -1.98254605033014        1.54207664237080
O            3.71264892807582       -2.48608110986436        0.59924874594075
O            3.44335286345643       -2.33557816550068        2.80760026489163
C            2.80523735347977        0.13995217362781       -0.53964792157836
C            2.57174640250973        0.16571462635471       -2.03273630316022
O            1.57317815689000       -0.14649872557831       -2.62035466186041
O            3.66300900383457        0.63262869020697       -2.65966421073107
N           -1.98764303485781        0.17638041172903        0.24676295267689
C           -2.12371142556847        1.37941608072068        1.02878428944849
C           -3.56076095792207        1.81493811283098        1.22730388673002
O           -4.54058641412141        1.36534260283712        0.70296598185365
O           -3.60996926915026        2.84869230975937        2.08515557998127
C           -2.35548416258032        0.34130053814025       -1.13939822747028
C           -2.67763215248960       -0.97189558331998       -1.81577978968227
O           -2.76351381958916       -2.05100443079446       -1.30166489213242
O           -2.88377185748464       -0.77450975804905       -3.12777518454959
H           -0.75544284123871       -0.87067299974801        1.51164065438069
H           -0.71624156845524       -1.39610444890544       -0.17226382934381
H            0.60188425822672        1.14305234330158        0.93780732463588
H            0.42015613622507        0.75371828460897       -0.79081491552294
H            1.26706250739709       -1.25493431948960        2.06629550410466
H            2.55093518876311       -0.03568118946941        2.11362424670237
H            4.10534664385032       -3.04601433516782        2.82280329078327
H            3.72444944108598       -0.42918892242461       -0.38530469338301
H            2.99745218363397        1.18422331180620       -0.21596644298593
H            3.52473479551778        0.63336250378558       -3.62046638371867
H           -1.59506007474825        2.25443402782310        0.60205278702646
H           -1.70886092440894        1.20346986496127        2.02429171117832
H           -4.52725331531250        3.14033749633205        2.20910584283605
H           -3.27472111988007        0.93064661784102       -1.18188342169369
H           -1.59612070181976        0.85404699813916       -1.75512983855366
H           -3.09879153380429       -1.61387598783680       -3.56383211152629
36
 energy: -67.979135741898 gnorm: 0.007406896121 xtb: 6.6.0 (conda-forge)
C           -0.73427855604392       -0.51030891420313        0.48384537317642
C            0.52595538394610        0.33138497410688        0.20872652299848
N            1.72861044629015       -0.48393480617707        0.19239922651459
C            2.13348273391549       -0.88275852458048        1.52111586221473
C            3.17340896726427       -1.98294763516573        1.54211037439633
O            3.73085627474572       -2.47635439190184        0.60135639842811
O            3.42596192079684       -2.35129869694814        2.80689826549701
C            2.80788278424273        0.13363978231388       -0.54738306367084
C            2.55851264305457        0.17623509910110       -2.03998877176247
O            1.55015037214549       -0.11591997429504       -2.62207287723326
O            3.65527100631261        0.62096972506962       -2.67121700233230
N           -1.98556784628650        0.18273874290833        0.24881304935470
C           -2.12827443364173        1.38576249662134        1.02987491553006
C           -3.56807920911999        1.82187538298092        1.21856496388637
O           -4.54274378470711        1.38042938633710        0.67726168245292
O           -3.62434329782862        2.83719413908131        2.09631601912045
C           -2.34980834302469        0.34016833967255       -1.14028902604476
C           -2.66018824800460       -0.97993100265958       -1.81314512273404
O           -2.72426619356522       -2.06053170311613       -1.29722482306300
O           -2.88263507173516       -0.78421956160801       -3.12122385765431
H           -0.75246037412349       -0.85350361954137        1.52200218520360
H           -0.70536851039118       -1.39061671007646       -0.15636371138184
H            0.61164825973899        1.15290796662163        0.94320445754897
H            0.41933197442878        0.76856288107871       -0.78275286783837
H            1.26454469264070       -1.26911717380316        2.05723855767742
H            2.54054873294876       -0.04269975073915        2.12026483308390
H            4.09006085880795       -3.05813269920469        2.83167714951912
H            3.71953380383501       -0.45264107963135       -0.41089774796208
H            3.02104543615998        1.17092296759477       -0.21782964933952
H            3.51832770723365        0.63205210565265       -3.63086247770406
H           -1.59729964557779        2.26073191803435        0.60831447096224
H           -1.72058817397252        1.20905100331229        2.02864610075969
H           -4.53894642152818        3.13430998384438        2.21943228343060
H           -3.27384793844091        0.92103590386197       -1.19023836241222
H           -1.59318840372989        0.85603862656196       -1.75464750514803
H           -3.09324954678282       -1.62109518110535       -3.56192582547675
36
 energy: -67.979380254926 gnorm: 0.008993963149 xtb: 6.6.0 (conda-forge)
C           -0.72968290789724       -0.49484423069352        0.49756459723210
C            0.53251835553451        0.34434004119149        0.21715618491517
N            1.72767062340262       -0.48284106291248        0.18787597108600
C            2.13313671601056       -0.88905389543366        1.51586662404547
C            3.17690430014808       -1.98686912113215        1.54280604069055
O            3.75796040668542       -2.46648491218326        0.60849938641677
O            3.40287257382122       -2.37032932042784        2.80733342563663
C            2.81010382409665        0.12356811988254       -0.55894632691717
C            2.54580942311761        0.18604635197726       -2.05010657117151
O            1.52452185418538       -0.07295376674947       -2.62659009255327
O            3.64648208891454        0.60908740382290       -2.68689338528480
N           -1.98525424693944        0.18803979941337        0.25379507976127
C           -2.13672942808474        1.39447322890550        1.03027245633436
C           -3.57888116385029        1.83050180605563        1.21101612303675
O           -4.54796031061029        1.40643396454984        0.64520142506843
O           -3.64366075436921        2.82414196581778        2.11143817018374
C           -2.34218079274119        0.33700844450016       -1.13980386952791
C           -2.63672209735729       -0.98929923124287       -1.81089527243853
O           -2.67338500363157       -2.07233101003446       -1.29705707739617
O           -2.88100442188816       -0.79515456440304       -3.11414698065678
H           -0.74894199050997       -0.82806801605248        1.53945873869346
H           -0.69468640646069       -1.38284630857838       -0.13294189701091
H            0.62895978250889        1.16144300368514        0.95512039510919
H            0.42094251162274        0.78939961327219       -0.77078587985790
H            1.26334611472335       -1.28553202299990        2.04336689807423
H            2.53038367380532       -0.05121163572952        2.12248416051492
H            4.07051975926774       -3.07294192260552        2.84080489230724
H            3.71040203670695       -0.48493474013554       -0.44274197139019
H            3.04917951988987        1.15112153349615       -0.22136651110294
H            3.50349876975731        0.63672923161496       -3.64522703105225
H           -1.60312378551334        2.26785159418419        0.61166881540457
H           -1.73741345612491        1.21886012182044        2.03282409331060
H           -4.55732442842326        3.12566000736501        2.22883627481415
H           -3.27134315366761        0.90904978359572       -1.19992304243378
H           -1.58526561984244        0.85518987602632       -1.74956838838408
H           -3.08165236628360       -1.63325012986354       -3.55639545545960
36
 energy: -67.979663982436 gnorm: 0.008682179392 xtb: 6.6.0 (conda-forge)
C           -0.72568818824072       -0.47756862511851        0.51738427499286
C            0.53902573474543        0.35695016449229        0.22916511430098
N            1.72487092442761       -0.48528304535396        0.18054931510143
C            2.13413321512121       -0.89734281204981        1.50693020890966
C            3.18280944852197       -1.99007367996409        1.54198071461693
O            3.79246962192602       -2.45477375405457        0.61829042981493
O            3.37402702142466       -2.39341725335592        2.80636200281546
C            2.80979333871174        0.10982518591299       -0.57354172603399
C            2.52992485170319        0.20156361603784       -2.06085339618072
O            1.49654535923294       -0.01935192889626       -2.63087421108383
O            3.63587004651049        0.59692234638700       -2.70577344051067
N           -1.98580475220902        0.19294589321326        0.26159079111215
C           -2.14733946206674        1.40596286651729        1.02874811301869
C           -3.59098155585921        1.84284929650575        1.19850092696825
O           -4.55322886582385        1.44207180451846        0.60456790442725
O           -3.66743022230171        2.80761847829494        2.12935878083135
C           -2.33173216852985        0.33235065289460       -1.13714197232934
C           -2.60788878946970       -0.99845718610409       -1.80756476546890
O           -2.60878040193658       -2.08502919464801       -1.29938774524996
O           -2.87921013265033       -0.80630977528383       -3.10549875301093
H           -0.74614164723770       -0.79450074446211        1.56464722990087
H           -0.68665914799596       -1.37447438247768       -0.10071120452222
H            0.65231580254389        1.16595824191158        0.97400395657861
H            0.42315744923950        0.81234505308355       -0.75404914915263
H            1.26449024976731       -1.30261760545056        2.02767963053610
H            2.52226889441484       -0.06038546119422        2.11799435991144
H            4.04407157354458       -3.09322180961310        2.84659821467054
H            3.69554823835592       -0.52337458478724       -0.47857531470236
H            3.07789589748538        1.12488578909099       -0.22486068252677
H            3.48000949425152        0.64321468814268       -3.66204034624061
H           -1.61179282178301        2.27597036992059        0.60827673313944
H           -1.75616286517697        1.23643697403425        2.03550861237091
H           -4.58234903510995        3.10968463892477        2.23775371115480
H           -3.26486693281828        0.89685837149921       -1.20858642733028
H           -1.57147422599368        0.85198922429221       -1.74055833229021
H           -3.06169594672134       -1.65022181286145       -3.54587355854149
36
 energy: -67.979929838175 gnorm: 0.007496905122 xtb: 6.6.0 (conda-forge)
C           -0.72305471074378       -0.46280632474386        0.54078240649791
C            0.54329780284122        0.36619078893013        0.24244435241832
N            1.72010199780874       -0.48945325058444        0.17404153477959
C            2.13525282394488       -0.90654006742390        1.49729415008920
C            3.18691461043404       -1.99418850662988        1.53811749984882
O            3.82634861133234       -2.44055177841974        0.62550645592106
O            3.34659771115620       -2.41743292055482        2.80076867336547
C            2.80651561733312        0.09424466531380       -0.58708470738980
C            2.51295055647407        0.21582405116913       -2.06807716573569
O            1.46569995958490        0.03857353855661       -2.62941532043316
O            3.62176081735327        0.58694263608444       -2.72289757237239
N           -1.98493610716908        0.19821158148884        0.26997756510857
C           -2.15622455121111        1.41877391289914        1.02485935882230
C           -3.60083853957269        1.85400307169832        1.18326362773931
O           -4.55440124000905        1.47845218875867        0.55982093908554
O           -3.69195617109442        2.78946833641236        2.14319130065275
C           -2.31836501033043        0.32780571259967       -1.13301571753254
C           -2.57670075569675       -1.00527085080608       -1.80276185118139
O           -2.54239595973135       -2.09400802586564       -1.30138129021687
O           -2.87561761776094       -0.81664370693663       -3.09575795406447
H           -0.74611447144616       -0.75996260122030        1.59379956853780
H           -0.68315406418646       -1.36858535219358       -0.06358097928647
H            0.67481702408763        1.16627195434577        0.99438458293794
H            0.42363721275541        0.83057436789402       -0.73604647487422
H            1.26680603402211       -1.31590545784976        2.01596284434535
H            2.51948332739483       -0.06939382331244        2.10973609987534
H            4.01914451928930       -3.11477927002411        2.84420366782695
H            3.67695269382638       -0.56176497328495       -0.51075658557400
H            3.10339995420292        1.09702592131394       -0.22703654848336
H            3.44824516829833        0.65298558084439       -3.67615421242582
H           -1.62130273053227        2.28570812489485        0.59724192671301
H           -1.76976846268943        1.26076937387806        2.03493436762580
H           -4.60983477796082        3.08816905403005        2.24086605190181
H           -3.25270392601631        0.88834128163909       -1.21562674767484
H           -1.55268847036535        0.84754678460022       -1.73055504926039
H           -3.03786887561958       -1.66859601750274       -3.53104879758972
36
 energy: -67.980150117359 gnorm: 0.004677767614 xtb: 6.6.0 (conda-forge)
C           -0.72249080375968       -0.45191404671244        0.56510346983958
C            0.54521154575367        0.37028327145335        0.25658731404565
N            1.71461758465537       -0.49441593449647        0.17120470749795
C            2.13698997711356       -0.91601298164425        1.48998197766125
C            3.18977211305889       -1.99981026485548        1.53106663440394
O            3.85334159021133       -2.42616010486839        0.62699302661109
O            3.32522688093268       -2.44411067962729        2.78931267753604
C            2.79932783114676        0.08115201611987       -0.59697986225012
C            2.49297420321422        0.23241496759992       -2.06992984297840
O            1.43815882993643        0.08701164514520       -2.62091765443325
O            3.60172410532354        0.58394826929978       -2.73611380034244
N           -1.98225640856582        0.20516724711194        0.27714279338649
C           -2.16121928416623        1.43299646454038        1.01835176235484
C           -3.60698199435669        1.86287755568692        1.16669574630584
O           -4.54993547374750        1.51038249957681        0.51502611044989
O           -3.71543508166579        2.77166100423599        2.15029396257967
C           -2.30311144530971        0.32500475775795       -1.12903627598493
C           -2.54697969886985       -1.00927471906839       -1.79640977460670
O           -2.47930239071051       -2.09879067481658       -1.30051468460189
O           -2.86911708710479       -0.82683460088445       -3.08549735193266
H           -0.75022293615551       -0.72859381174077        1.62325702693179
H           -0.68405813924742       -1.36661408833468       -0.02463294459577
H            0.69208910948268        1.16384497357604        1.01246895540198
H            0.42112752310607        0.83976587070658       -0.71818309991234
H            1.27063066684895       -1.32392778613356        2.01242556121066
H            2.52439605157454       -0.07813256522877        2.10100778862754
H            3.99987016671347       -3.13963552335689        2.83150733660563
H            3.65762387264217       -0.59055943970115       -0.53693172811510
H            3.11853462716223        1.07304761925223       -0.22623391719069
H            3.41319390020804        0.66059492483335       -3.68541003691076
H           -1.62997513193168        2.29775527826732        0.57896946822978
H           -1.77480133479775        1.29086136214719        2.03031007331651
H           -4.63715206008958        3.06377045980872        2.23763071429612
H           -3.23628681086696        0.88495260399669       -1.22243412768956
H           -1.53140556669243        0.84360060015859       -1.72236249621421
H           -3.01407893104290       -1.68630616980690       -3.51374950953579
36
 energy: -67.980240995003 gnorm: 0.015658527867 xtb: 6.6.0 (conda-forge)
C           -0.72119673124103       -0.43685295026778        0.59689439520595
C            0.54818544475845        0.37697657036860        0.27599322075314
N            1.70807813570651       -0.49792802009918        0.17204177486947
C            2.13902655341832       -0.92750250066540        1.48436970057685
C            3.19442978763519       -2.00704023435967        1.52109527150130
O            3.88730991961860       -2.40334457337941        0.62402339860776
O            3.29825731351638       -2.48455341866473        2.77196749864070
C            2.79259224392123        0.06214738951094       -0.60742417888161
C            2.46330663936311        0.25098812378329       -2.07037199406085
O            1.38402726444811        0.16963748397601       -2.60409231242477
O            3.57480690903654        0.57172626482349       -2.75151885603860
N           -1.97678597939240        0.21686779516517        0.28469557580819
C           -2.16581710731431        1.45343461207229        1.00784338440352