36
 energy: -67.961609030311 gnorm: 0.101249382578 xtb: 6.6.0 (conda-forge)
C           -0.76321172148756       -0.54350684130636        0.44785406416200
C            0.51931641224135        0.29358135391163        0.18267159636819
N            1.74999728496737       -0.52793431227516        0.17899275686326
C            2.16253556872865       -0.87634777784617        1.56114880717545
C            3.18651783932394       -2.00979318726663        1.60400713476447
O            3.71088311839249       -2.60315425481353        0.67631501001379
O            3.51607745637017       -2.33158848928473        2.87569136179004
C            2.84848945503532        0.17491895451648       -0.53481639900712
C            2.65272273529825        0.16991336527255       -2.05112134247954
O            1.69005044912378       -0.20886713366296       -2.69846370700758
O            3.71862475274974        0.70395115197609       -2.69082740362579
N           -2.06236960636379        0.14302645853929        0.27340686776587
C           -2.13654790893403        1.39649556876443        1.05059772005684
C           -3.57137422944612        1.86130133083747        1.29117504535697
O           -4.61181901401316        1.40605887854159        0.84715632924207
O           -3.60986698792904        2.94512321904610        2.10063888796796
C           -2.40629702322955        0.35109786344264       -1.15423646833279
C           -2.74457276762431       -0.95340494579942       -1.87379239259626
O           -2.90693022129719       -2.06869756198152       -1.40648058625825
O           -2.88482075387439       -0.76210220651287       -3.20630376443364
H           -0.74037442302055       -0.91500521040670        1.47941124704606
H           -0.73290973615130       -1.44546417323627       -0.17479806977648
H            0.60952722060949        1.10163435251937        0.92000503513730
H            0.39932127696241        0.78278004264800       -0.78831793728177
H            1.30279730843138       -1.24206626508384        2.13170497715598
H            2.57917988661164       -0.00173943132490        2.07443996525947
H            4.15081033354693       -3.07141240528769        2.76589615386990
H            3.80664916595521       -0.32506922633324       -0.35963312471782
H            2.93385730505624        1.21278803484199       -0.19155178740063
H            3.47991299544474        0.61646311734807       -3.63791125882018
H           -1.58633373761590        2.20421771565249        0.55459703245672
H           -1.70787183816783        1.22971429026475        2.04665231796185
H           -4.56997510521034        3.13021606868039        2.18077058737284
H           -3.30183837935097        0.97409488100511       -1.24921637114710
H           -1.59274841306857        0.85146150548444       -1.68926205629800
H           -3.08740869806123       -1.66268473087161       -3.53640022860616
36
 energy: -67.973477853970 gnorm: 0.034908276650 xtb: 6.6.0 (conda-forge)
C           -0.75491994153428       -0.54204206703908        0.45988587348951
C            0.51657484189822        0.29744935319949        0.19003182369448
N            1.73587277755303       -0.52010047861921        0.17876226905703
C            2.16055995237882       -0.87458542455750        1.53761552545818
C            3.18305172550568       -1.99467982777495        1.58285414134548
O            3.69750334927930       -2.56561002611093        0.65909739371786
O            3.49895910879399       -2.32408480628811        2.85153317954113
C            2.82213120628297        0.16426604649314       -0.53451860394989
C            2.62971522013558        0.17048381433606       -2.03830085565375
O            1.67276507092548       -0.19939030584127       -2.66423635769109
O            3.70297702216094        0.68431114881434       -2.67237980614215
N           -2.03388417805364        0.14473389977450        0.26328619099269
C           -2.13676352868310        1.38322169815549        1.03532012123892
C           -3.56307014139399        1.84733668659857        1.26912118431178
O           -4.57838561538526        1.39066353155981        0.81749899074174
O           -3.60339262779502        2.91747263424061        2.09045577809282
C           -2.38839816253421        0.34143302693539       -1.14470290168603
C           -2.72939058107827       -0.95309194557920       -1.85467270898155
O           -2.87546037985990       -2.04610783433201       -1.37777703338773
O           -2.88396655049965       -0.76022886898839       -3.18030632163867
H           -0.75326932494479       -0.90517371455553        1.49292730299390
H           -0.73841206848284       -1.42141818126257       -0.18743200593155
H            0.60557429105911        1.10620112921737        0.93355734865986
H            0.42050749086316        0.75841492653436       -0.79608291295054
H            1.29903869404952       -1.23590954438271        2.10272775328360
H            2.58341225029159       -0.01248148810630        2.07603973598547
H            4.13860470593890       -3.05846177483385        2.78252232075899
H            3.76850384392799       -0.35175652379569       -0.35444828454314
H            2.93422813452818        1.20889283880013       -0.20415118258079
H            3.49903719225920        0.62269215347841       -3.62504082912414
H           -1.59808721215803        2.21776585377526        0.56324491889130
H           -1.70940284701140        1.21658102639702        2.02816083630955
H           -4.54973108210337        3.13639326869200        2.18889678612711
H           -3.29056398237414        0.95749438948122       -1.21153031887094
H           -1.59147222390634        0.84031945199282       -1.71214558029708
H           -3.09044643003011       -1.64100406640946       -3.54581377126445
36
 energy: -67.977756776035 gnorm: 0.017472118461 xtb: 6.6.0 (conda-forge)
C           -0.74893036383757       -0.53641449008431        0.46592927079043
C            0.51613242899546        0.30182624912780        0.19761138871888
N            1.73020418248153       -0.50523420507942        0.18571209992297
C            2.15055021686596       -0.87317313670301        1.52354596650341
C            3.17138346365532       -1.98668442033297        1.55612701433585
O            3.69194580062317       -2.52581139094528        0.62428939985467
O            3.47653880696373       -2.31657636028967        2.82402304342735
C            2.80535136781611        0.15272634022670       -0.53369400550672
C            2.60399876854790        0.16005174488498       -2.02903625193003
O            1.63388290537019       -0.18984892255180       -2.63431983376811
O            3.68312504747165        0.66351121572051       -2.65458350143717
N           -2.00802237786187        0.15666981022420        0.25197617931137
C           -2.12977217963951        1.37421534180903        1.02657122067069
C           -3.55773476215134        1.82208030794224        1.24940120385498
O           -4.55341302008572        1.36629555915980        0.76968526505460
O           -3.59591750621099        2.88341349319252        2.07785687217915
C           -2.37075038035459        0.33823195360115       -1.13808023797280
C           -2.71019387746584       -0.95829677473252       -1.83174807068176
O           -2.83582578414782       -2.03868844640989       -1.33674048058666
O           -2.88220950473793       -0.76008731259877       -3.15133547464617
H           -0.75965284889070       -0.89148694501632        1.49962510381529
H           -0.73742420751476       -1.40455779273344       -0.19080613816370
H            0.59991073441311        1.11753362860220        0.93828126791977
H            0.42782122339153        0.73980048396657       -0.79727925273134
H            1.28485981233929       -1.23377371743463        2.08072745822292
H            2.57614071449576       -0.02154218995458        2.08800927186534
H            4.12635334883827       -3.04156750574071        2.80383761748787
H            3.73909736993392       -0.38340503162279       -0.35313327332702
H            2.95096789526673        1.20247934846795       -0.21238631179069
H            3.52058061728744        0.63361045540705       -3.61434532197078
H           -1.60033095271956        2.23521507564953        0.57831097734872
H           -1.70316666894576        1.20439536387361        2.01756693475237
H           -4.52624365608100        3.14487421368348        2.19596650165517
H           -3.27957419861808        0.94569310619367       -1.18052388770494
H           -1.59346319389441        0.84158689870367       -1.73736608397462
H           -3.09621922159628       -1.61706194820732       -3.55967593150139
36
 energy: -67.978631743136 gnorm: 0.008795634914 xtb: 6.6.0 (conda-forge)
C           -0.74279695331079       -0.53123576606642        0.47075342062109
C            0.51702334537802        0.31118266938231        0.19969557577920
N            1.72770285093186       -0.49452887309490        0.19135828231329
C            2.14038288545540       -0.87485801540692        1.52249751103586
C            3.17069039205334       -1.98007905366084        1.54462738857681
O            3.69942380113646       -2.50055518288118        0.60435189864360
O            3.45789441537180       -2.32392378298906        2.81153802236520
C            2.80246282680635        0.14571981579541       -0.53486093879758
C            2.58297627212457        0.16450253644601       -2.02813192535155
O            1.59882359095805       -0.17099781304998       -2.62308774281322
O            3.67171044756454        0.64477094413864       -2.65278578138434
N           -1.99318071891216        0.16815164314619        0.24750836307670
C           -2.12334328711604        1.37528468264590        1.02672143867452
C           -3.55642000914217        1.81633598939209        1.23200424245255
O           -4.54271579238420        1.35894180497996        0.73049242851855
O           -3.59984132397641        2.86120154683048        2.07906951673869
C           -2.36114411127521        0.34055031417618       -1.13788989476171
C           -2.69383011845542       -0.96475572389790       -1.82010396552003
O           -2.79784067423827       -2.04377540885830       -1.31208919637224
O           -2.88344075673821       -0.76603221382696       -3.13577636255893
H           -0.75804611511154       -0.88297984436899        1.50544304687432
H           -0.72708762593112       -1.40042571970819       -0.18334096934664
H            0.59787857475827        1.13134400797873        0.93664149305391
H            0.42342796910082        0.74330729323252       -0.79592975683129
H            1.27338916637018       -1.24283297335325        2.07336211568637
H            2.56229659770390       -0.02856373734907        2.10204781158586
H            4.11400377044072       -3.04147168707640        2.81456201846591
H            3.72851499312620       -0.40751408484878       -0.36557522926040
H            2.97348079378920        1.19408589156941       -0.21386008261972
H            3.52810923512488        0.63174972849071       -3.61427375032610
H           -1.59570756587660        2.24642468655592        0.59154083470400
H           -1.70228120614377        1.20242449262057        2.01983656468745
H           -4.52174305598287        3.14185297560916        2.20411354073898
H           -3.27568428800442        0.93847713440871       -1.17600124100212
H           -1.59596460282913        0.84932454282390       -1.75080386207150
H           -3.09912372276288       -1.61110281978651       -3.56365481557759
36
 energy: -67.978918907913 gnorm: 0.006705035079 xtb: 6.6.0 (conda-forge)
C           -0.73839849087478       -0.52210709087267        0.47566208142993
C            0.52068708743697        0.32090774954700        0.20321466952027
N            1.72813854485449       -0.48763715609966        0.19342169104962
C            2.13531022866309       -0.87823435807276        1.52286483045919
C            3.16863404512667       -1.98254607677711        1.54207661517589
O            3.71264907307845       -2.48608097490333        0.59924869558358
O            3.44335277764037       -2.33557833107107        2.80760021064380
C            2.80523736944126        0.13995214572972       -0.53964794050048
C            2.57174632616877        0.16571465758181       -2.03273631191858
O            1.57317797118138       -0.14649849781774       -2.62035460502130
O            3.66300895789729        0.63262856286860       -2.65966426506297
N           -1.98764299964169        0.17638048537275        0.24676294884700
C           -2.12371144634155        1.37941613913190        1.02878428667558
C           -3.56076100493931        1.81493812458524        1.22730382693160
O           -4.54058639126292        1.36534269230195        0.70296570950664
O           -3.60996940118674        2.84869222070982        2.08515562122556
C           -2.35548411100530        0.34130055112571       -1.13939824281127
C           -2.67763201551526       -0.97189562138553       -1.81577975409747
O           -2.76351355667878       -2.05100445483654       -1.30166480323519
O           -2.88377191163085       -0.77450982595858       -3.12777512065245
H           -0.75544286019384       -0.87067289623387        1.51164072209791
H           -0.71624154065126       -1.39610439576634       -0.17226374845842
H            0.60188429625187        1.14305239646874        0.93780738319940
H            0.42015614607896        0.75371832152241       -0.79081485516113
H            1.26706251188947       -1.25493439037135        2.06629547462745
H            2.55093517211671       -0.03568124353307        2.11362432292686
H            4.10534660586100       -3.04601445343525        2.82280323748565
H            3.72444942582329       -0.42918902468118       -0.38530479885409
H            2.99745231315458        1.18422326195726       -0.21596644009606
H            3.52473472514312        0.63336247058197       -3.62046643121476
H           -1.59506008480138        2.25443410874005        0.60205283256198
H           -1.70886098305039        1.20346991582864        2.02429172238762
H           -4.52725344485327        3.14033743994594        2.20910581985747
H           -3.27472109452781        0.93064658327057       -1.18188347499668
H           -1.59612067416660        0.85404702704362       -1.75512986700130
H           -3.09879156648262       -1.61387606249853       -3.56383204311300
36
 energy: -67.979135741802 gnorm: 0.007406884863 xtb: 6.6.0 (conda-forge)
C           -0.73427857250677       -0.51030893313310        0.48384538665203
C            0.52595537875757        0.33138494293117        0.20872654617269
N            1.72861045868987       -0.48393482294220        0.19239924574849
C            2.13348278029946       -0.88275853283293        1.52111586629007
C            3.17340899889680       -1.98294765720588        1.54211033264391
O            3.73085628915575       -2.47635441853326        0.60135635103062
O            3.42596195363302       -2.35129874578374        2.80689823357974
C            2.80788276747797        0.13363981326769       -0.54738304070643
C            2.55851264825118        0.17623510018835       -2.03998874886996
O            1.55015039991328       -0.11592000230366       -2.62207287004120
O            3.65527102929368        0.62096972668792       -2.67121697120870
N           -1.98556784835839        0.18273875577709        0.24881305112663
C           -2.12827444346298        1.38576251697477        1.02987489499402
C           -3.56807922741607        1.82187538647879        1.21856492037783
O           -4.54274380659268        1.38042937025215        0.67726167306538
O           -3.62434331793027        2.83719415476145        2.09631598495800
C           -2.34980833026706        0.34016834073500       -1.14028902495003
C           -2.66018830203635       -0.97993099470873       -1.81314510019105
O           -2.72426627148166       -2.06053169299111       -1.29722479964725
O           -2.88263508951800       -0.78421955194462       -3.12122385635956
H           -0.75246039908628       -0.85350362851606        1.52200219740752
H           -0.70536854719619       -1.39061671999341       -0.15636370292711
H            0.61164825089645        1.15290792698947        0.94320448860270
H            0.41933197211519        0.76856284332685       -0.78275284367085
H            1.26454475149902       -1.26911713581102        2.05723861134260
H            2.54054883834901       -0.04269975656277        2.12026479444329
H            4.09006088715467       -3.05813276604093        2.83167709452527
H            3.71953382366300       -0.45264096845127       -0.41089767524693
H            3.02104533388678        1.17092301852979       -0.21782964001618
H            3.51832772825618        0.63205209538199       -3.63086245611042
H           -1.59729968377228        2.26073194040517        0.60831441173553
H           -1.72058815685570        1.20905106617829        2.02864607489569
H           -4.53894645620275        3.13430998143798        2.21943225236333
H           -3.27384789775641        0.92103594539349       -1.19023835767592
H           -1.59318837225843        0.85603859466001       -1.75464751379587
H           -3.09324956748716       -1.62109519260368       -3.56192581054003
36
 energy: -67.979380255044 gnorm: 0.008993935747 xtb: 6.6.0 (conda-forge)
C           -0.72968292322978       -0.49484424310964        0.49756464093317
C            0.53251835003711        0.34434002697709        0.21715621855633
N            1.72767062363129       -0.48284108396758        0.18787597038313
C            2.13313676745812       -0.88905390544661        1.51586660941275
C            3.17690434151693       -1.98686914949916        1.54280598401539
O            3.75796039446066       -2.46648502415608        0.60849934783904
O            3.40287259111574       -2.37032935426764        2.80733340238552
C            2.81010379825445        0.12356815866340       -0.55894631978698
C            2.54580940744287        0.18604639669272       -2.05010657188795
O            1.52452189852896       -0.07295380360798       -2.62659014296235
O            3.64648211259487        0.60908745106133       -2.68689335566560
N           -1.98525426323809        0.18803978999868        0.25379510066277
C           -2.13672945393549        1.39447325033596        1.03027242978812
C           -3.57888120312687        1.83050181294675        1.21101608161638
O           -4.54796038514573        1.40643394211657        0.64520148015740
O           -3.64366076203850        2.82414199937837        2.11143813540216
C           -2.34218076866557        0.33700842159874       -1.13980386275706
C           -2.63672213878546       -0.98929925334604       -1.81089525593096
O           -2.67338513247184       -2.07233103655986       -1.29705708520687
O           -2.88100438759722       -0.79515455638405       -3.11414699319375
H           -0.74894199754439       -0.82806800598877        1.53945878940803
H           -0.69468641377532       -1.38284633509506       -0.13294183149065
H            0.62895979878358        1.16144296432643        0.95512044316528
H            0.42094249333255        0.78939963253904       -0.77078583229874
H            1.26334619168050       -1.28553198007824        2.04336695938713
H            2.53038381539736       -0.05121164600739        2.12248406996275
H            4.07051972698372       -3.07294200867315        2.84080489629981
H            3.71040205106136       -0.48493462658128       -0.44274193197134
H            3.04917939480680        1.15112158377002       -0.22136651118081
H            3.50349882706754        0.63672924124342       -3.64522701265731
H           -1.60312386505934        2.26785160738507        0.61166871270233
H           -1.73741344842664        1.21886021944764        2.03282406544282
H           -4.55732443830381        3.12566003052706        2.22883628434956
H           -3.27134309060695        0.90904981922859       -1.19992307082622
H           -1.58526554652315        0.85518978522704       -1.74956837059220
H           -3.08165236567674       -1.63325012069640       -3.55639547346328
36
 energy: -67.979663982090 gnorm: 0.008682171223 xtb: 6.6.0 (conda-forge)
C           -0.72568820543069       -0.47756863793149        0.51738432422990
C            0.53902572133435        0.35695015708171        0.22916515253864
N            1.72487090979283       -0.48528305980119        0.18054930263939
C            2.13413325720701       -0.89734281235495        1.50693018418358
C            3.18280943351299       -1.99007374146366        1.54198064903695
O            3.79246953334726       -2.45477393657281        0.61829038352478
O            3.37402704410342       -2.39341723255662        2.80636198418375
C            2.80979330828276        0.10982522542885       -0.57354172549200
C            2.52992484894993        0.20156364435665       -2.06085340876793
O            1.49654541523942       -0.01935198399313       -2.63087429171093
O            3.63587006791937        0.59692245868299       -2.70577339514657
N           -1.98580477931037        0.19294585154114        0.26159082054746
C           -2.14733949143836        1.40596287196711        1.02874807632609
C           -3.59098159303566        1.84284928247889        1.19850091955475
O           -4.55322896561476        1.44207174417841        0.60456804537340
O           -3.66743018185223        2.80761854253941        2.12935872889542
C           -2.33173214307964        0.33235059963216       -1.13714195859314
C           -2.60788885193276       -0.99845722833727       -1.80756475659498
O           -2.60878060498672       -2.08502924935615       -1.29938777637835
O           -2.87921003910683       -0.80630976091631       -3.10549878572444
H           -0.74614164341398       -0.79450071889842        1.56464729101152
H           -0.68665913841938       -1.37447442231767       -0.10071111288852
H            0.65231582234928        1.16595820062002        0.97400401156944
H            0.42315741866421        0.81234509734554       -0.75404909066486
H            1.26449031934916       -1.30261753060938        2.02767969942834
H            2.52226906535643       -0.06038546986881        2.11799424524047
H            4.04407152425447       -3.09322185343937        2.84659825373240
H            3.69554824590997       -0.52337448655492       -0.47857528478509
H            3.07789577665820        1.12488584378068       -0.22486068909014
H            3.48000956894518        0.64321475954726       -3.66204031417426
H           -1.61179292482900        2.27597035978915        0.60827658778420
H           -1.75616284419182        1.23643708256534        2.03550856981159
H           -4.58234898411100        3.10968470149409        2.23775373774661
H           -3.26486685353809        0.89685840098458       -1.20858646162104
H           -1.57147412559809        0.85198907459752       -1.74055829853400
H           -3.06169591128324       -1.65022177364053       -3.54587361719470
36
 energy: -67.979929837600 gnorm: 0.007496908225 xtb: 6.6.0 (conda-forge)
C           -0.72305472234406       -0.46280633238251        0.54078245321604
C            0.54329778661643        0.36619079267750        0.24244438139324
N            1.72010197741319       -0.48945324349578        0.17404152010285
C            2.13525284511307       -0.90654005968768        1.49729412370474
C            3.18691456819905       -1.99418856843640        1.53811743921917
O            3.82634845572588       -2.44055197945354        0.62550639325119
O            3.34659771326329       -2.41743287893212        2.80076866315902
C            2.80651558722104        0.09424470123967       -0.58708471607299
C            2.51295054602969        0.21582409091332       -2.06807718827588
O            1.46570000931976        0.03857346318627       -2.62941540192171
O            3.62176082088328        0.58694279728374       -2.72289752382380
N           -1.98493612607840        0.19821153410641        0.26997758487020
C           -2.15622457121970        1.41877390466199        1.02485932096339
C           -3.60083856467735        1.85400303833944        1.18326365359208
O           -4.55440133057647        1.47845210335105        0.55982108808306
O           -3.69195609001179        2.78946840256107        2.14319126218543
C           -2.31836498901909        0.32780564321405       -1.13301570883584
C           -2.57670080850039       -1.00527091848701       -1.80276184277331
O           -2.54239615716919       -2.09400810696932       -1.30138129764733
O           -2.87561750089607       -0.81664370732186       -3.09575798800892
H           -0.74611446437028       -0.75996256388989        1.59379962785388
H           -0.68315403516011       -1.36858539323260       -0.06358088001021
H            0.67481703365911        1.16627193215099        0.99438462205237
H            0.42363717321176        0.83057442185938       -0.73604642320656
H            1.26680607194778       -1.31590537339928        2.01596290259481
H            2.51948347355024       -0.06939382972700        2.10973600670083
H            4.01914444319507       -3.11477928748492        2.84420374342118
H            3.67695269023002       -0.56176491133168       -0.51075658924145
H            3.10339987995032        1.09702596801024       -0.22703655146938
H            3.44824526101758        0.65298569804260       -3.67615417735738
H           -1.62130281847945        2.28570810251864        0.59724178653193
H           -1.76976842826704        1.26076946155351        2.03493432093153
H           -4.60983466780405        3.08816915589567        2.24086610548357
H           -3.25270385658209        0.88834128628552       -1.21562679481708
H           -1.55268837965151        0.84754662270327       -1.73055502758465
H           -3.03786882573583       -1.66859596632412       -3.53104888826629
36
 energy: -67.980150117472 gnorm: 0.004677751456 xtb: 6.6.0 (conda-forge)
C           -0.72249080545534       -0.45191401770539        0.56510356266827
C            0.54521154019869        0.37028329552116        0.25658735776386
N            1.71461755197559       -0.49441593289090        0.17120467812214
C            2.13698997500601       -0.91601299680951        1.48998193495564
C            3.18977203414478       -1.99981035560581        1.53106658610061
O            3.85334149187430       -2.42616024869448        0.62699297920997
O            3.32522680191577       -2.44411068810483        2.78931266334291
C            2.79932780514482        0.08115198958359       -0.59697990359919
C            2.49297416362893        0.23241503198354       -2.06992987527368
O            1.43815877794946        0.08701174429409       -2.62091769938495
O            3.60172406636552        0.58394842999579       -2.73611378883190
N           -1.98225641948757        0.20516721362472        0.27714282484163
C           -2.16121930929529        1.43299649005175        1.01835170125159
C           -3.60698202019061        1.86287755449959        1.16669574905326
O           -4.54993553424707        1.51038246084144        0.51502620407594
O           -3.71543503489426        2.77166103961907        2.15029394924531
C           -2.30311139711122        0.32500467198240       -1.12903626184941
C           -2.54697964982535       -1.00927481119119       -1.79640975876130
O           -2.47930243435200       -2.09879076616338       -1.30051467162548
O           -2.86911694752364       -0.82683464446995       -3.08549736134681
H           -0.75022293717712       -0.72859368123243        1.62325714441735
H           -0.68405810973335       -1.36661411474980       -0.02463276288725
H            0.69208916365862        1.16384496610785        1.01246901546726
H            0.42112748604244        0.83976594265415       -0.71818302798735
H            1.27063066498449       -1.32392773267807        2.01242557078350
H            2.52439614150342       -0.07813259379691        2.10100771131644
H            3.99987005239303       -3.13963554760381        2.83150739745807
H            3.65762381013458       -0.59055952581669       -0.53693182652620
H            3.11853467976201        1.07304755965682       -0.22623391505276
H            3.41319387956480        0.66059514684490       -3.68541002829981
H           -1.62997521791117        2.29775527483718        0.57896928144399
H           -1.77480130336913        1.29086151381479        2.03031000552621
H           -4.63715199173970        3.06377050662458        2.23763078439640
H           -3.23628672706544        0.88495256578417       -1.22243419719557
H           -1.53140544836047        0.84360044134590       -1.72236245878237
H           -3.01407879850479       -1.68630618215592       -3.51374956403869
36
 energy: -67.980240994541 gnorm: 0.015658586489 xtb: 6.6.0 (conda-forge)
C           -0.72119672605128       -0.43685289696798        0.59689450053696
C            0.54818545228728        0.37697660423028        0.27599326242646
N            1.70807810335512       -0.49792802351595        0.17204175145516
C            2.13902654740412       -0.92750251880009        1.48436966446748
C            3.19442969849114       -2.00704033399239        1.52109524341225
O            3.88730977749230       -2.40334472486744        0.62402336424302
O            3.29825721522308       -2.48455346855228        2.77196747760299
C            2.79259222534047        0.06214731941718       -0.60742423402331
C            2.46330657583278        0.25098818577560       -2.07037202196209
O            1.38402714388992        0.16963765220516       -2.60409230823978
O            3.57480680343721        0.57172645938443       -2.75151886501546
N           -1.97678597388258        0.21686780145930        0.28469559907404
C           -2.16581711279213        1.45343466844748        1.00784332482964