36
 energy: -67.990448937715 gnorm: 0.000905138953 xtb: 6.6.0 (conda-forge)
C           -0.59407338303493        0.33516028016784        1.72424285908946
C            0.81542245168911        0.76923459574051        1.27372591726908
N            1.39340296480015       -0.12675765587660        0.28319684911944
C            1.82805360704789       -1.38531808534101        0.84831040851351
C            1.89932395761102       -2.47851392411841       -0.19122953629463
O            1.54000522665910       -2.40123771621514       -1.33389111420339
O            2.42926273758697       -3.59448314004442        0.32424032769317
C            2.43142259954571        0.48577106693871       -0.51514819603101
C            1.91083032828886        1.52745866759519       -1.47891337457168
O            0.77051326104245        1.87102560823596       -1.62953060167757
O            2.91645420787569        2.05692947091841       -2.18441172406349
N           -1.64509543841616        0.39380573470223        0.73028100090634
C           -1.90794458568002        1.74085792452969        0.25714081242259
C           -3.31103647231800        1.92718651933340       -0.27342860219736
O           -4.02635465986484        1.09980511173023       -0.76738917209454
O           -3.68651105171898        3.21134064349866       -0.16132553330418
C           -1.51270416749166       -0.53487250890438       -0.38113819016254
C           -1.50446703963226       -1.99429278754279       -0.01760493451842
O           -1.10742583079066       -2.51155491653870        0.99721811412405
O           -1.97050980877175       -2.72535315747850       -1.03476266190191
H           -0.89140162828917        0.98704373955189        2.55122307547264
H           -0.57711697292107       -0.68612398891729        2.10087261990814
H            1.46032382898780        0.84609795595862        2.16727654778946
H            0.74745651461594        1.76016416723129        0.82425091707808
H            1.09169471715582       -1.72649614158325        1.57902097749702
H            2.80467837388419       -1.32260451367453        1.36034293924286
H            2.43205084625807       -4.30542769586434       -0.33601165242548
H            2.89769365534549       -0.28469057107811       -1.13506765752997
H            3.22999436614849        0.95677063146287        0.08869752634818
H            2.57879809487060        2.70560934975562       -2.82278064410210
H           -1.22896081940478        2.04405186676792       -0.55827485280434
H           -1.78076758906214        2.44586689984969        1.08082677121156
H           -4.57184698824581        3.33384292151178       -0.54016781455119
H           -2.36220621874013       -0.38173537365889       -1.04859959354845
H           -0.58440369578852       -0.36676400671217       -0.95315312186871
H           -1.91455538924395       -3.67179697193760       -0.82803868582888
