      -----------------------------------------------------------      
     |                   =====================                   |     
     |                           x T B                           |     
     |                   =====================                   |     
     |                         S. Grimme                         |     
     |          Mulliken Center for Theoretical Chemistry        |     
     |                    University of Bonn                     |     
      -----------------------------------------------------------      

   * xtb version 6.6.0 (conda-forge) compiled by 'runner@Mac-1676020848589.local' on 2023-02-10

   xtb is free software: you can redistribute it and/or modify it under
   the terms of the GNU Lesser General Public License as published by
   the Free Software Foundation, either version 3 of the License, or
   (at your option) any later version.
   
   xtb is distributed in the hope that it will be useful,
   but WITHOUT ANY WARRANTY; without even the implied warranty of
   MERCHANTABILITY or FITNESS FOR A PARTICULAR PURPOSE.  See the
   GNU Lesser General Public License for more details.
   
   Cite this work as:
   * C. Bannwarth, E. Caldeweyher, S. Ehlert, A. Hansen, P. Pracht,
     J. Seibert, S. Spicher, S. Grimme, WIREs Comput. Mol. Sci., 2020, 11,
     e01493. DOI: 10.1002/wcms.1493
   
   for GFN2-xTB:
   * C. Bannwarth, S. Ehlert and S. Grimme., J. Chem. Theory Comput., 2019,
     15, 1652-1671. DOI: 10.1021/acs.jctc.8b01176
   for GFN1-xTB:
   * S. Grimme, C. Bannwarth, P. Shushkov, J. Chem. Theory Comput., 2017,
     13, 1989-2009. DOI: 10.1021/acs.jctc.7b00118
   for GFN0-xTB:
   * P. Pracht, E. Caldeweyher, S. Ehlert, S. Grimme, ChemRxiv, 2019, preprint.
     DOI: 10.26434/chemrxiv.8326202.v1
   for GFN-FF:
   * S. Spicher and S. Grimme, Angew. Chem. Int. Ed., 2020, 59, 15665-15673.
     DOI: 10.1002/anie.202004239
   
   for ALPB and GBSA implicit solvation:
   * S. Ehlert, M. Stahn, S. Spicher, S. Grimme, J. Chem. Theory Comput.,
     2021, 17, 4250-4261. DOI: 10.1021/acs.jctc.1c00471
   
   for DFT-D4:
   * E. Caldeweyher, C. Bannwarth and S. Grimme, J. Chem. Phys., 2017,
     147, 034112. DOI: 10.1063/1.4993215
   * E. Caldeweyher, S. Ehlert, A. Hansen, H. Neugebauer, S. Spicher,
     C. Bannwarth and S. Grimme, J. Chem. Phys., 2019, 150, 154122.
     DOI: 10.1063/1.5090222
   * E. Caldeweyher, J.-M. Mewes, S. Ehlert and S. Grimme, Phys. Chem. Chem. Phys.
     2020, 22, 8499-8512. DOI: 10.1039/D0CP00502A
   
   for sTDA-xTB:
   * S. Grimme and C. Bannwarth, J. Chem. Phys., 2016, 145, 054103.
     DOI: 10.1063/1.4959605
   
   in the mass-spec context:
   * V. Asgeirsson, C. Bauer and S. Grimme, Chem. Sci., 2017, 8, 4879.
     DOI: 10.1039/c7sc00601b
   * J. Koopman and S. Grimme, ACS Omega 2019, 4, 12, 15120-15133.
     DOI: 10.1021/acsomega.9b02011
   
   for metadynamics refer to:
   * S. Grimme, J. Chem. Theory Comput., 2019, 155, 2847-2862
     DOI: 10.1021/acs.jctc.9b00143
   
   for SPH calculations refer to:
   * S. Spicher and S. Grimme, J. Chem. Theory Comput., 2021, 17, 1701-1714
     DOI: 10.1021/acs.jctc.0c01306
   
   with help from (in alphabetical order)
   P. Atkinson, C. Bannwarth, F. Bohle, G. Brandenburg, E. Caldeweyher
   M. Checinski, S. Dohm, S. Ehlert, S. Ehrlich, I. Gerasimov, C. Hölzer
   A. Katbashev, J. Koopman, C. Lavigne, S. Lehtola, F. März, M. Müller,
   F. Musil, H. Neugebauer, J. Pisarek, C. Plett, P. Pracht, F. Pultar,
   J. Seibert, P. Shushkov, S. Spicher, M. Stahn, M. Steiner, T. Strunk,
   J. Stückrath, T. Rose, and J. Unsleber
   
 * started run on 2024/10/22 at 09:16:08.695     

           -------------------------------------------------
          |                Calculation Setup                |
           -------------------------------------------------

          program call               : xtb aspirin.xyz --gfn2
          coordinate file            : aspirin.xyz
          omp threads                :                     8

   ID    Z sym.   atoms
    1    6 C      1, 2, 5-11
    2    8 O      3, 4, 12, 13
    3    1 H      14-21

           -------------------------------------------------
          |                 G F N 2 - x T B                 |
           -------------------------------------------------

        Reference                      10.1021/acs.jctc.8b01176
      * Hamiltonian:
        H0-scaling (s, p, d)           1.850000    2.230000    2.230000
        zeta-weighting                 0.500000
      * Dispersion:
        s8                             2.700000
        a1                             0.520000
        a2                             5.000000
        s9                             5.000000
      * Repulsion:
        kExp                           1.500000    1.000000
        rExp                           1.000000
      * Coulomb:
        alpha                          2.000000
        third order                    shell-resolved
        anisotropic                    true
        a3                             3.000000
        a5                             4.000000
        cn-shift                       1.200000
        cn-exp                         4.000000
        max-rad                        5.000000


          ...................................................
          :                      SETUP                      :
          :.................................................:
          :  # basis functions                  60          :
          :  # atomic orbitals                  60          :
          :  # shells                           34          :
          :  # electrons                        68          :
          :  max. iterations                   250          :
          :  Hamiltonian                  GFN2-xTB          :
          :  restarted?                      false          :
          :  GBSA solvation                  false          :
          :  PC potential                    false          :
          :  electronic temp.          300.0000000     K    :
          :  accuracy                    1.0000000          :
          :  -> integral cutoff          0.2500000E+02      :
          :  -> integral neglect         0.1000000E-07      :
          :  -> SCF convergence          0.1000000E-05 Eh   :
          :  -> wf. convergence          0.1000000E-03 e    :
          :  Broyden damping             0.4000000          :
          ...................................................

 iter      E             dE          RMSdq      gap      omega  full diag
   1    -39.9182218 -0.399182E+02  0.537E+00    3.45       0.0  T
   2    -39.9968474 -0.786256E-01  0.288E+00    3.02       1.0  T
   3    -40.0016192 -0.477180E-02  0.174E+00    3.37       1.0  T
   4    -40.0151914 -0.135722E-01  0.271E-01    3.23       1.0  T
   5    -40.0158768 -0.685414E-03  0.111E-01    3.25       1.0  T
   6    -40.0159735 -0.966475E-04  0.499E-02    3.26       1.0  T
   7    -40.0159831 -0.961006E-05  0.139E-02    3.25       1.6  T
   8    -40.0159838 -0.720256E-06  0.645E-03    3.25       3.4  T
   9    -40.0159841 -0.261251E-06  0.262E-03    3.25       8.3  T
  10    -40.0159841 -0.283954E-07  0.100E-03    3.25      21.8  T
  11    -40.0159841 -0.752158E-08  0.583E-04    3.25      37.4  T
  12    -40.0159841 -0.233482E-08  0.187E-04    3.25     117.0  T

   *** convergence criteria satisfied after 12 iterations ***

         #    Occupation            Energy/Eh            Energy/eV
      -------------------------------------------------------------
         1        2.0000           -0.7370457             -20.0560
       ...           ...                  ...                  ...
        28        2.0000           -0.4652994             -12.6614
        29        2.0000           -0.4610538             -12.5459
        30        2.0000           -0.4517230             -12.2920
        31        2.0000           -0.4301014             -11.7037
        32        2.0000           -0.4215456             -11.4708
        33        2.0000           -0.4151888             -11.2979
        34        2.0000           -0.4124155             -11.2224 (HOMO)
        35                         -0.2928308              -7.9683 (LUMO)
        36                         -0.2662189              -7.2442
        37                         -0.2390346              -6.5045
        38                         -0.2092698              -5.6945
        39                         -0.1147549              -3.1226
       ...                                ...                  ...
        60                          0.5981586              16.2767
      -------------------------------------------------------------
                  HL-Gap            0.1195847 Eh            3.2541 eV
             Fermi-level           -0.3526232 Eh           -9.5954 eV

 SCC (total)                   0 d,  0 h,  0 min,  0.027 sec
 SCC setup                      ...        0 min,  0.002 sec (  7.010%)
 Dispersion                     ...        0 min,  0.000 sec (  1.716%)
 classical contributions        ...        0 min,  0.000 sec (  1.426%)
 integral evaluation            ...        0 min,  0.002 sec (  6.459%)
 iterations                     ...        0 min,  0.020 sec ( 72.591%)
 molecular gradient             ...        0 min,  0.002 sec (  8.134%)
 printout                       ...        0 min,  0.001 sec (  2.599%)

         :::::::::::::::::::::::::::::::::::::::::::::::::::::
         ::                     SUMMARY                     ::
         :::::::::::::::::::::::::::::::::::::::::::::::::::::
         :: total energy             -39.597833341848 Eh    ::
         :: gradient norm              0.166690911103 Eh/a0 ::
         :: HOMO-LUMO gap              3.254064381287 eV    ::
         ::.................................................::
         :: SCC energy               -40.015984107742 Eh    ::
         :: -> isotropic ES            0.098617326547 Eh    ::
         :: -> anisotropic ES         -0.001115156138 Eh    ::
         :: -> anisotropic XC          0.008065423062 Eh    ::
         :: -> dispersion             -0.017886965697 Eh    ::
         :: repulsion energy           0.418115167182 Eh    ::
         :: add. restraining           0.000000000000 Eh    ::
         :: total charge               0.000000000000 e     ::
         :::::::::::::::::::::::::::::::::::::::::::::::::::::

           -------------------------------------------------
          |                Property Printout                |
           -------------------------------------------------

    * Orbital Energies and Occupations

         #    Occupation            Energy/Eh            Energy/eV
      -------------------------------------------------------------
         1        2.0000           -0.7370457             -20.0560
       ...           ...                  ...                  ...
        22        2.0000           -0.5088841             -13.8474
        23        2.0000           -0.4952395             -13.4762
        24        2.0000           -0.4909024             -13.3581
        25        2.0000           -0.4858791             -13.2214
        26        2.0000           -0.4825252             -13.1302
        27        2.0000           -0.4710042             -12.8167
        28        2.0000           -0.4652994             -12.6614
        29        2.0000           -0.4610538             -12.5459
        30        2.0000           -0.4517230             -12.2920
        31        2.0000           -0.4301014             -11.7037
        32        2.0000           -0.4215456             -11.4708
        33        2.0000           -0.4151888             -11.2979
        34        2.0000           -0.4124155             -11.2224 (HOMO)
        35                         -0.2928308              -7.9683 (LUMO)
        36                         -0.2662189              -7.2442
        37                         -0.2390346              -6.5045
        38                         -0.2092698              -5.6945
        39                         -0.1147549              -3.1226
        40                         -0.0499182              -1.3583
        41                         -0.0436990              -1.1891
        42                          0.0929146               2.5283
        43                          0.1026200               2.7924
        44                          0.1195019               3.2518
        45                          0.1288400               3.5059
       ...                                ...                  ...
        60                          0.5981586              16.2767
      -------------------------------------------------------------
                  HL-Gap            0.1195847 Eh            3.2541 eV
             Fermi-level           -0.3526232 Eh           -9.5954 eV

     #   Z          covCN         q      C6AA      α(0)
     1   6 C        3.743    -0.131    23.101     6.857
     2   6 C        2.688     0.349    21.075     7.513
     3   8 O        0.856    -0.410    21.888     6.273
     4   8 O        1.702    -0.232    17.842     5.703
     5   6 C        2.837     0.165    24.438     8.101
     6   6 C        2.909    -0.039    28.975     8.826
     7   6 C        2.909    -0.020    28.499     8.754
     8   6 C        2.909    -0.033    28.814     8.802
     9   6 C        2.914    -0.022    28.561     8.763
    10   6 C        2.958    -0.014    28.372     8.737
    11   6 C        2.691     0.347    21.110     7.519
    12   8 O        0.856    -0.412    21.925     6.278
    13   8 O        1.647    -0.388    20.621     6.130
    14   1 H        0.922     0.088     1.899     2.155
    15   1 H        0.922     0.077     2.015     2.220
    16   1 H        0.922     0.098     1.803     2.100
    17   1 H        0.925     0.072     2.069     2.249
    18   1 H        0.925     0.057     2.233     2.337
    19   1 H        0.925     0.052     2.291     2.367
    20   1 H        0.925     0.071     2.072     2.251
    21   1 H        0.796     0.326     0.648     1.266

 Mol. C6AA /au·bohr⁶  :       5539.345856
 Mol. C8AA /au·bohr⁸  :     132349.766937
 Mol. α(0) /au        :        115.200487


Wiberg/Mayer (AO) data.
largest (>0.10) Wiberg bond orders for each atom

 ---------------------------------------------------------------------------
     #   Z sym  total        # sym  WBO       # sym  WBO       # sym  WBO
 ---------------------------------------------------------------------------
     1   6 C    3.987 --     2 C    1.024    15 H    0.976    14 H    0.968
                            16 H    0.943
     2   6 C    3.909 --     3 O    1.746     4 O    1.073     1 C    1.024
     3   8 O    2.017 --     2 C    1.746     4 O    0.150
     4   8 O    2.371 --     2 C    1.073     5 C    1.012     3 O    0.150
     5   6 C    3.925 --     6 C    1.388    10 C    1.322     4 O    1.012
     6   6 C    3.986 --     7 C    1.443     5 C    1.388    17 H    0.965
                             9 C    0.106
     7   6 C    3.989 --     6 C    1.443     8 C    1.425    18 H    0.969
     8   6 C    3.990 --     9 C    1.453     7 C    1.425    19 H    0.970
     9   6 C    3.986 --     8 C    1.453    10 C    1.380    20 H    0.966
                             6 C    0.106
    10   6 C    3.983 --     9 C    1.380     5 C    1.322    11 C    1.042
    11   6 C    3.919 --    12 O    1.720    13 O    1.102    10 C    1.042
    12   8 O    2.018 --    11 C    1.720    13 O    0.166
    13   8 O    2.172 --    11 C    1.102    21 H    0.867    12 O    0.166
    14   1 H    0.992 --     1 C    0.968
    15   1 H    0.994 --     1 C    0.976
    16   1 H    0.990 --     1 C    0.943
    17   1 H    0.994 --     6 C    0.965
    18   1 H    0.996 --     7 C    0.969
    19   1 H    0.996 --     8 C    0.970
    20   1 H    0.994 --     9 C    0.966
    21   1 H    0.893 --    13 O    0.867
 ---------------------------------------------------------------------------

Topologies differ in total number of bonds
Writing topology from bond orders to xtbtopo.mol

molecular dipole:
                 x           y           z       tot (Debye)
 q only:        0.342       0.704       0.570
   full:        0.479       0.576       0.706       2.617
molecular quadrupole (traceless):
                xx          xy          yy          xz          yz          zz
 q only:        7.508       5.016       2.843      -4.314      -1.775     -10.351
  q+dip:        9.697       2.012       3.785      -4.074      -2.807     -13.482
   full:        7.976       1.912       2.782      -5.022      -1.219     -10.758


           -------------------------------------------------
          | TOTAL ENERGY              -39.597833341848 Eh   |
          | GRADIENT NORM               0.166690911103 Eh/α |
          | HOMO-LUMO GAP               3.254064381287 eV   |
           -------------------------------------------------

------------------------------------------------------------------------
 * finished run on 2024/10/22 at 09:16:23.316     
------------------------------------------------------------------------
 total:
 * wall-time:     0 d,  0 h,  0 min, 14.620 sec
 *  cpu-time:     0 d,  0 h,  0 min,  1.844 sec
 * ratio c/w:     0.126 speedup
 SCF:
 * wall-time:     0 d,  0 h,  0 min,  0.027 sec
 *  cpu-time:     0 d,  0 h,  0 min,  0.164 sec
 * ratio c/w:     5.998 speedup

